ITEM: TIMESTEP
1
ITEM: NUMBER OF ATOMS
70644
ITEM: BOX BOUNDS pp pp pp
-14.085 14.085
-14.085 14.085
-14.085 14.085
ITEM: ATOMS id type x y z
1 3 13.3435297 -2.5490949 -0.3589344
2 3 13.1240597 -2.7309339 -0.4854069
3 3 12.90868 -2.903575 -0.5821495
4 3 12.6724997 -3.0327041 -0.5988102
5 3 12.4747496 -3.196795 -0.6979046
6 3 12.2587996 -3.378253 -0.8686696
7 3 12.08916 -3.3762491 -1.106936
8 3 11.8249502 -3.57336 -1.1992019
9 3 11.5830698 -3.70997 -1.289152
10 3 11.4520798 -3.778796 -1.4638161
11 3 11.2126904 -3.930582 -1.578526
12 3 10.9086304 -4.0315681 -1.6393891
13 4 10.6855803 -4.231514 -1.651091
14 4 10.4525099 -4.4382892 -1.691008
15 4 10.2364102 -4.5869332 -1.654333
16 4 10.0446501 -4.654346 -1.895868
17 4 9.844799 -4.7738452 -1.974154
18 4 9.6091852 -4.915691 -2.1678519
19 4 9.3663015 -5.0390062 -2.220686
20 4 9.153019 -5.1332941 -2.2349401
21 4 8.9523192 -5.3645368 -2.2694609
22 4 8.6794777 -5.5104332 -2.3208201
23 4 8.4014607 -5.6977401 -2.3456781
24 4 8.1977158 -5.8209391 -2.5414911
25 3 8.0073261 -5.9703798 -2.5214541
26 3 7.7472091 -6.175725 -2.50053
27 3 7.5371771 -6.2801972 -2.3291631
28 3 7.3201409 -6.4347391 -2.4269979
29 3 7.0764241 -6.5482712 -2.3751559
30 3 6.945457 -6.7439852 -2.377754
31 3 6.5943952 -6.900383 -2.391453
32 3 6.3717189 -7.0627599 -2.4002931
33 3 6.0683918 -7.2976532 -2.4442411
34 3 5.9182402 -7.3910608 -2.420559
35 3 5.6804161 -7.4911051 -2.4365139
36 3 5.4627128 -7.6680141 -2.2950709
37 4 5.238204 -7.8628998 -2.243902
38 4 4.99189 -7.9762468 -2.335665
39 4 4.7188359 -8.1981392 -2.4808371
40 4 4.4618411 -8.3713627 -2.431154
41 4 4.3035751 -8.5113774 -2.342752
42 4 4.0750041 -8.7089062 -2.3872869
43 4 3.86283 -8.8529472 -2.3667319
44 4 3.571105 -8.9487114 -2.3553181
45 4 3.342799 -9.1576939 -2.328835
46 4 3.179343 -9.3173084 -2.216934
47 4 2.943292 -9.4777365 -2.1796341
48 4 2.7278071 -9.6300526 -2.1730609
49 3 2.5252471 -9.8154135 -2.280664
50 3 2.2165251 -9.8907624 -2.4409731
51 3 2.0353291 -10.0560198 -2.3805959
52 3 1.813848 -10.22577 -2.3294909
53 3 1.596041 -10.3282299 -2.442986
54 3 1.380205 -10.4994698 -2.384644
55 3 1.090521 -10.6560498 -2.4238739
56 3 0.8283329 -10.8040304 -2.5013161
57 3 0.5738583 -10.8536502 -2.612747
58 3 0.3007908 -11.0476303 -2.6077459
59 3 0.133131 -11.2299299 -2.4562841
60 3 -0.0235462 -11.3388996 -2.5189569
61 4 -0.217329 -11.5481301 -2.5146141
62 4 -0.4960384 -11.6785898 -2.4511621
63 4 -0.7371655 -11.8814602 -2.3719981
64 4 -1.0112931 -12.02631 -2.4295371
65 4 -1.241892 -12.1523895 -2.4717829
66 4 -1.467054 -12.3126698 -2.3905699
67 4 -1.676813 -12.5228997 -2.293083
68 4 -1.88209 -12.6777802 -2.3618071
69 4 -2.0658131 -12.91395 -2.1291449
70 4 -2.297606 -13.0428305 -2.070879
71 4 -2.543222 -13.2056103 -2.014837
72 4 -2.8079851 -13.3642397 -2.025202
73 3 13.2989397 -2.4139309 -0.5458851
74 3 13.0387602 -2.551929 -0.5051174
75 3 12.7920103 -2.7210109 -0.5652542
76 3 12.5841904 -2.8340001 -0.6989784
77 3 12.35635 -3.0153511 -0.8306293
78 3 12.1523304 -3.0640731 -0.8935242
79 3 11.9285098 -3.2717819 -1.090237
80 3 11.7322703 -3.406857 -1.090723
81 3 11.48664 -3.4932161 -1.2532181
82 3 11.2862702 -3.612092 -1.380924
83 3 11.0922699 -3.702533 -1.557999
84 3 10.8413696 -3.851743 -1.647375
85 4 10.62465 -4.0761061 -1.643744
86 4 10.3429098 -4.2502079 -1.678528
87 4 10.1408997 -4.3701968 -1.761423
88 4 9.8990726 -4.5182472 -1.7891521
89 4 9.7015343 -4.6300159 -1.9223732
90 4 9.4753523 -4.694665 -2.07847
91 4 9.2222347 -4.8408562 -2.1610949
92 4 9.0221996 -5.027246 -2.132683
93 4 8.820509 -5.1825309 -2.2249341
94 4 8.5988388 -5.3252959 -2.2350669
95 4 8.3398895 -5.4428382 -2.384886
96 4 8.0958538 -5.6230479 -2.4220259
97 3 7.862917 -5.7787819 -2.462606
98 3 7.5955949 -5.9484248 -2.38345
99 3 7.43677 -6.1167541 -2.411314
100 3 7.1886921 -6.2513619 -2.360086
101 3 6.9605232 -6.4057589 -2.2650149
102 3 6.689929 -6.6098838 -2.276016
103 3 6.5045929 -6.7639771 -2.292366
104 3 6.2724228 -6.9081932 -2.369833
105 3 6.0274768 -7.0814929 -2.309767
106 3 5.7763329 -7.192102 -2.374044
107 3 5.5677591 -7.371583 -2.3167989
108 3 5.3001008 -7.5430289 -2.3064959
109 4 5.060235 -7.6900049 -2.337086
110 4 4.7988701 -7.859777 -2.3367419
111 4 4.583787 -7.9792118 -2.3300879
112 4 4.3533139 -8.1648483 -2.365274
113 4 4.1485028 -8.318636 -2.3524799
114 4 3.954527 -8.5019398 -2.3054071
115 4 3.7124071 -8.649662 -2.249826
116 4 3.5065301 -8.8308831 -2.2782209
117 4 3.262506 -8.97814 -2.226711
118 4 3.010571 -9.1281605 -2.154459
119 4 2.846019 -9.2727032 -2.158571
120 4 2.570544 -9.4803791 -2.12327
121 3 2.35146 -9.5807743 -2.237581
122 3 2.1178269 -9.7128372 -2.2689209
123 3 1.90946 -9.8616162 -2.303082
124 3 1.685766 -10.0206604 -2.321573
125 3 1.476748 -10.1162205 -2.413044
126 3 1.202265 -10.2753296 -2.387239
127 3 0.948698 -10.4934502 -2.3616099
128 3 0.7438374 -10.5996199 -2.384258
129 3 0.4645786 -10.7126503 -2.4575811
130 3 0.2184429 -10.9092504 -2.415745
131 3 0.0328808 -11.06178 -2.421417
132 3 -0.2100697 -11.2107601 -2.4446659
133 4 -0.3889332 -11.3554201 -2.455158
134 4 -0.5794239 -11.5645705 -2.3142851
135 4 -0.8560964 -11.7413597 -2.328913
136 4 -1.0737129 -11.8382101 -2.263176
137 4 -1.343256 -11.99576 -2.2572041
138 4 -1.55871 -12.2021399 -2.2352791
139 4 -1.817446 -12.3325997 -2.2864971
140 4 -2.0373631 -12.5543804 -2.1737881
141 4 -2.1661429 -12.7172098 -2.0072689
142 4 -2.435617 -12.8888998 -2.049906
143 4 -2.619524 -13.0732098 -1.915178
144 4 -2.8265901 -13.1605101 -1.892359
145 3 13.1193199 -2.1763301 -0.5518188
146 3 12.9109298 -2.299773 -0.5675946
147 3 12.6675301 -2.411674 -0.6337376
148 3 12.3912602 -2.6304441 -0.6170807
149 3 12.2463799 -2.7557981 -0.8726674
150 3 12.00105 -2.857246 -0.9604416
151 3 11.7475405 -3.0271521 -1.027342
152 3 11.5349703 -3.134727 -1.128098
153 3 11.3239002 -3.2711301 -1.2175011
154 3 11.1259699 -3.4008429 -1.382317
155 3 10.9116898 -3.5330541 -1.5057071
156 3 10.65275 -3.7177689 -1.617844
157 4 10.4259796 -3.826952 -1.668646
158 4 10.1902103 -3.999542 -1.715017
159 4 9.9224034 -4.1319099 -1.686893
160 4 9.6991768 -4.2324858 -1.789587
161 4 9.5342694 -4.3660712 -1.862431
162 4 9.2620239 -4.539959 -1.906462
163 4 9.0263643 -4.6358619 -1.993935
164 4 8.8638288 -4.758296 -2.086998
165 4 8.6063347 -4.955637 -2.126642
166 4 8.4297095 -5.1015811 -2.1479299
167 4 8.1957512 -5.240665 -2.2639289
168 4 7.94021 -5.430984 -2.278255
169 3 7.6939259 -5.5865131 -2.321733
170 3 7.4802418 -5.7400918 -2.3135469
171 3 7.2333012 -5.913722 -2.309166
172 3 7.0157261 -6.0627718 -2.3557241
173 3 6.7877832 -6.1794238 -2.328249
174 3 6.5524559 -6.3451262 -2.2466929
175 3 6.3194919 -6.5461231 -2.363194
176 3 6.1271348 -6.650228 -2.314774
177 3 5.8710652 -6.844223 -2.2506981
178 3 5.612 -7.0024791 -2.284231
179 3 5.378963 -7.203558 -2.2732749
180 3 5.1498442 -7.2828932 -2.218025
181 4 4.961052 -7.5211172 -2.2004969
182 4 4.6940441 -7.6307221 -2.1805229
183 4 4.4495111 -7.841622 -2.15362
184 4 4.2080531 -7.9665818 -2.3155561
185 4 3.951516 -8.1098709 -2.332176
186 4 3.7585311 -8.2460804 -2.3322029
187 4 3.5791481 -8.4111366 -2.319284
188 4 3.2994781 -8.5855198 -2.2351799
189 4 3.171351 -8.7313881 -2.1454539
190 4 2.925593 -8.9428654 -2.0487001
191 4 2.652349 -9.0510807 -2.0620899
192 4 2.410064 -9.2442455 -2.062216
193 3 2.1860061 -9.3702183 -2.1180339
194 3 2.0018611 -9.5407563 -2.114223
195 3 1.761763 -9.7196427 -2.1431141
196 3 1.527365 -9.8094902 -2.1920359
197 3 1.258867 -9.9376298 -2.2600501
198 3 1.053339 -10.0656099 -2.428988
199 3 0.8033237 -10.1898499 -2.385536
200 3 0.577261 -10.3853903 -2.39023
201 3 0.3537655 -10.5210505 -2.3082011
202 3 0.0781574 -10.6447296 -2.3701129
203 3 -0.1240406 -10.8830204 -2.297209
204 3 -0.3230152 -11.0141697 -2.293066
205 4 -0.5548153 -11.1374102 -2.2902739
206 4 -0.7171421 -11.3741503 -2.1923389
207 4 -0.9960652 -11.4756499 -2.215925
208 4 -1.182825 -11.6677599 -2.165283
209 4 -1.400919 -11.7866802 -2.132637
210 4 -1.6357631 -12.0002403 -2.159452
211 4 -1.8929 -12.1606503 -2.0868909
212 4 -2.084528 -12.3251305 -2.0060251
213 4 -2.324522 -12.4375696 -1.938461
214 4 -2.5729811 -12.6464501 -1.882915
215 4 -2.7035051 -12.8329497 -1.7473641
216 4 -2.977983 -12.94806 -1.76696
217 3 12.94592 -1.90607 -0.554451
218 3 12.7234001 -2.0785069 -0.6477394
219 3 12.4912501 -2.2056999 -0.6278915
220 3 12.2553997 -2.400193 -0.7291584
221 3 12.0701904 -2.4802981 -0.8538304
222 3 11.87424 -2.6367851 -0.941658
223 3 11.6198797 -2.7918129 -1.059696
224 3 11.4293499 -2.901593 -1.141146
225 3 11.1697397 -3.0224969 -1.235939
226 3 11.0229101 -3.162504 -1.358135
227 3 10.7416401 -3.3080011 -1.525488
228 3 10.5172501 -3.451746 -1.615129
229 4 10.2843104 -3.599458 -1.639969
230 4 10.0068598 -3.7375021 -1.642534
231 4 9.8140507 -3.85498 -1.6769411
232 4 9.5888558 -4.0094409 -1.749866
233 4 9.3435831 -4.1590691 -1.8204561
234 4 9.1706095 -4.3379049 -1.885378
235 4 8.8693114 -4.443141 -1.956055
236 4 8.6995678 -4.5876022 -1.955648
237 4 8.4718886 -4.7287612 -2.0218239
238 4 8.253273 -4.929155 -2.051029
239 4 7.9870028 -4.9872928 -2.1745551
240 4 7.7897501 -5.215312 -2.212759
241 3 7.5543022 -5.4178038 -2.2157121
242 3 7.3221679 -5.5276461 -2.1600249
243 3 7.1023641 -5.70012 -2.245657
244 3 6.8223038 -5.8489662 -2.245754
245 3 6.5811649 -5.978871 -2.2254729
246 3 6.4023528 -6.107862 -2.3262899
247 3 6.1492748 -6.265964 -2.271446
248 3 5.9349728 -6.4335041 -2.258862
249 3 5.73556 -6.635068 -2.1786959
250 3 5.4581433 -6.778843 -2.228117
251 3 5.2810102 -6.905694 -2.2191069
252 3 5.0303779 -7.1037159 -2.194283
253 4 4.8005219 -7.2632818 -2.093941
254 4 4.527843 -7.4314881 -2.0882151
255 4 4.2796192 -7.606174 -2.1705339
256 4 4.0745602 -7.7155581 -2.182878
257 4 3.7941811 -7.8453012 -2.2797051
258 4 3.6233971 -7.9987102 -2.3437369
259 4 3.3889191 -8.1655235 -2.2450199
260 4 3.2142019 -8.3932762 -2.1581841
261 4 3.0228491 -8.528328 -1.992065
262 4 2.7818041 -8.7096958 -2.063673
263 4 2.5582149 -8.8169403 -1.969135
264 4 2.365499 -9.0076351 -2.0029049
265 3 2.1172531 -9.1463795 -1.975252
266 3 1.873396 -9.3339443 -1.976444
267 3 1.609968 -9.478632 -2.0677969
268 3 1.387808 -9.5960388 -2.1393449
269 3 1.159883 -9.7156468 -2.224926
270 3 0.8879108 -9.8616428 -2.240675
271 3 0.6533605 -9.9765264 -2.335419
272 3 0.4292622 -10.1448898 -2.342581
273 3 0.1462917 -10.3326101 -2.373987
274 3 -0.0374241 -10.4807997 -2.2924211
275 3 -0.2651768 -10.6581202 -2.1928079
276 3 -0.4533062 -10.79737 -2.1844161
277 4 -0.6457958 -10.9814902 -2.0670509
278 4 -0.8930988 -11.1409502 -2.032846
279 4 -1.096468 -11.3158903 -1.959145
280 4 -1.303801 -11.4547596 -2.0264189
281 4 -1.611269 -11.6593304 -2.0147419
282 4 -1.804258 -11.7911997 -1.975201
283 4 -2.031328 -11.9515696 -1.984699
284 4 -2.24159 -12.1238203 -1.897457
285 4 -2.493078 -12.2539301 -1.882027
286 4 -2.6233311 -12.45115 -1.693653
287 4 -2.865103 -12.5994101 -1.700634
288 4 -3.0842299 -12.7360201 -1.626257
289 3 12.7999602 -1.729839 -0.5061188
290 3 12.6022797 -1.839302 -0.547987
291 3 12.36759 -1.978065 -0.5763054
292 3 12.1134195 -2.1787679 -0.6545677
293 3 11.8612404 -2.286283 -0.8104706
294 3 11.6801501 -2.398262 -0.9297676
295 3 11.4792605 -2.5762949 -1.030905
296 3 11.2332001 -2.7186241 -1.086828
297 3 11.0205202 -2.839817 -1.092485
298 3 10.8243904 -2.8889562 -1.356894
299 3 10.5936699 -3.0741811 -1.445761
300 3 10.3636599 -3.1985469 -1.551826
301 4 10.1395302 -3.35025 -1.596035
302 4 9.868374 -3.511662 -1.6361181
303 4 9.6586151 -3.6177061 -1.6225471
304 4 9.4118643 -3.783474 -1.766605
305 4 9.1970635 -3.928886 -1.753786
306 4 8.9473782 -4.068727 -1.816046
307 4 8.6872769 -4.2020502 -1.940413
308 4 8.4907532 -4.401535 -1.916849
309 4 8.2995014 -4.552732 -1.870827
310 4 8.0970993 -4.7102051 -1.910614
311 4 7.8372212 -4.853271 -2.002733
312 4 7.602387 -5.0325961 -2.0328479
313 3 7.3699169 -5.13976 -2.1358471
314 3 7.1417532 -5.3122192 -2.145689
315 3 6.9469528 -5.4422932 -2.22752
316 3 6.6965122 -5.556684 -2.234045
317 3 6.4694438 -5.6854582 -2.2828879
318 3 6.2416248 -5.896391 -2.323463
319 3 5.970633 -6.0571928 -2.2940481
320 3 5.7794791 -6.174171 -2.2297859
321 3 5.582696 -6.4183731 -2.1834619
322 3 5.3500481 -6.5664172 -2.194351
323 3 5.0991292 -6.7451849 -2.1752031
324 3 4.8915348 -6.8697958 -2.1308019
325 4 4.6647668 -7.0738068 -2.024668
326 4 4.4055681 -7.2332792 -2.016073
327 4 4.190989 -7.331142 -2.0194399
328 4 3.933203 -7.450738 -2.139065
329 4 3.6731 -7.6437569 -2.2123571
330 4 3.4534979 -7.7765141 -2.123205
331 4 3.2152891 -7.9457312 -2.127008
332 4 3.029561 -8.1233673 -2.08992
333 4 2.87881 -8.2857418 -1.929058
334 4 2.588157 -8.5083733 -1.968464
335 4 2.3943031 -8.6276798 -1.939058
336 4 2.1659939 -8.7777386 -1.905058
337 3 1.933779 -8.9687634 -1.895962
338 3 1.7362731 -9.0603428 -1.887394
339 3 1.4816001 -9.2684288 -1.979456
340 3 1.267645 -9.3708897 -2.052927
341 3 1.005232 -9.5106182 -2.152988
342 3 0.7524662 -9.6385365 -2.190372
343 3 0.5296459 -9.7443924 -2.296917
344 3 0.2716465 -9.9265976 -2.277235
345 3 0.0782566 -10.1030703 -2.2182031
346 3 -0.1416988 -10.2800398 -2.045145
347 3 -0.393713 -10.4372998 -2.046473
348 3 -0.6116428 -10.5762701 -1.980473
349 4 -0.8405972 -10.7381096 -1.975603
350 4 -0.971632 -10.8744698 -1.955893
351 4 -1.234739 -11.1011 -1.956335
352 4 -1.5110951 -11.2292004 -2.059706
353 4 -1.7083991 -11.4312601 -1.928131
354 4 -1.934649 -11.5755101 -1.950386
355 4 -2.134146 -11.7210799 -1.83584
356 4 -2.3752771 -11.8944998 -1.8128851
357 4 -2.633085 -12.0450001 -1.7466051
358 4 -2.7826331 -12.2415304 -1.667759
359 4 -2.9511782 -12.3836002 -1.576769
360 4 -3.1295869 -12.5369597 -1.501387
361 3 12.5494004 -1.531727 -0.3685246
362 3 12.4507504 -1.64326 -0.5240765
363 3 12.20578 -1.833774 -0.5089569
364 3 11.9552498 -1.947902 -0.557188
365 3 11.71103 -2.1398771 -0.7510719
366 3 11.5233603 -2.234911 -0.8792592
367 3 11.25947 -2.3283 -0.9326496
368 3 11.0684204 -2.4534521 -1.006075
369 3 10.8953104 -2.550983 -1.196711
370 3 10.6190701 -2.708781 -1.3113771
371 3 10.4212704 -2.8599542 -1.481808
372 3 10.2358503 -2.966372 -1.467201
373 4 10.0067596 -3.1317649 -1.5551111
374 4 9.757164 -3.225452 -1.627617
375 4 9.5273018 -3.3876231 -1.6953351
376 4 9.2373533 -3.567966 -1.667469
377 4 9.0150042 -3.679821 -1.7354831
378 4 8.7964955 -3.857465 -1.737383
379 4 8.5789004 -4.0178981 -1.8135261
380 4 8.3646889 -4.1719542 -1.8200801
381 4 8.1271896 -4.3333988 -1.77569
382 4 7.8920188 -4.4983168 -1.857885
383 4 7.7352052 -4.6615 -1.958998
384 4 7.481268 -4.796525 -2.0394709
385 3 7.2212772 -4.9359542 -2.036943
386 3 7.0121002 -5.0506811 -2.1606619
387 3 6.7423063 -5.2155471 -2.0899911
388 3 6.5226078 -5.2969971 -2.189884
389 3 6.2902889 -5.4958182 -2.255573
390 3 6.0676308 -5.6622601 -2.2790201
391 3 5.837822 -5.811256 -2.2485731
392 3 5.6526351 -5.993938 -2.1725371
393 3 5.3886318 -6.1670981 -2.2325101
394 3 5.1793032 -6.3160982 -2.140743
395 3 4.926365 -6.534791 -2.0949781
396 3 4.7087379 -6.6828699 -2.07515
397 4 4.533238 -6.86268 -2.03145
398 4 4.2657671 -7.0392299 -1.961031
399 4 4.0201998 -7.0813308 -1.963398
400 4 3.809999 -7.2493072 -2.0679021
401 4 3.5740271 -7.413631 -2.01297
402 4 3.3486991 -7.5944319 -1.998041
403 4 3.101253 -7.7458821 -1.992718
404 4 2.862187 -7.92165 -1.94552
405 4 2.666528 -8.0502224 -1.9426842
406 4 2.4247201 -8.2209301 -1.922819
407 4 2.2169621 -8.3995094 -1.860279
408 4 2.030267 -8.551508 -1.883318
409 3 1.774233 -8.7259388 -1.7976281
410 3 1.610037 -8.8973732 -1.899551
411 3 1.355307 -8.9964218 -1.963903
412 3 1.098219 -9.1651096 -1.95752
413 3 0.867323 -9.3185654 -2.0450521
414 3 0.6055776 -9.3637676 -2.1431961
415 3 0.3909931 -9.5434017 -2.123039
416 3 0.187254 -9.7105618 -2.1110439
417 3 -0.0615749 -9.9338684 -2.0925159
418 3 -0.3128796 -10.0708103 -2.0117841
419 3 -0.51404 -10.2122498 -1.931406
420 3 -0.712698 -10.3953104 -1.913971
421 4 -0.9467336 -10.54846 -1.858458
422 4 -1.150866 -10.7227497 -1.861374
423 4 -1.359293 -10.9265204 -1.853268
424 4 -1.618181 -11.0155096 -1.934782
425 4 -1.8328001 -11.1574602 -1.859308
426 4 -2.0882781 -11.3889504 -1.842857
427 4 -2.291014 -11.5366097 -1.8004251
428 4 -2.526201 -11.68394 -1.676682
429 4 -2.714922 -11.8656102 -1.5605721
430 4 -2.984514 -11.9947596 -1.5354821
431 4 -3.0649591 -12.1524401 -1.424587
432 4 -3.1950469 -12.3302097 -1.32329
433 3 12.41397 -1.328091 -0.2851677
434 3 12.2370701 -1.397098 -0.3643932
435 3 12.0043097 -1.58564 -0.471262
436 3 11.76299 -1.753956 -0.5155983
437 3 11.5737305 -1.849249 -0.6378536
438 3 11.3577099 -2.021811 -0.7354527
439 3 11.0896301 -2.1454589 -0.9497434
440 3 10.8960506 -2.2030931 -1.059746
441 3 10.7711697 -2.3479109 -1.209204
442 3 10.4753504 -2.447649 -1.3202061
443 3 10.3131199 -2.63674 -1.388493
444 3 10.0668402 -2.720042 -1.453817
445 4 9.8734674 -2.874266 -1.502216
446 4 9.6375656 -3.0603409 -1.561329
447 4 9.3919535 -3.1780331 -1.5466841
448 4 9.1636486 -3.3607099 -1.555489
449 4 8.873558 -3.5001371 -1.6961481
450 4 8.6810017 -3.616117 -1.644325
451 4 8.4059782 -3.8324161 -1.736977
452 4 8.1952839 -3.934995 -1.734167
453 4 8.0033627 -4.090919 -1.6957051
454 4 7.7519822 -4.273727 -1.7558351
455 4 7.597179 -4.4324122 -1.847727
456 4 7.2970662 -4.4880309 -1.959726
457 3 7.1003022 -4.675016 -2.083735
458 3 6.898985 -4.82583 -2.0490739
459 3 6.608975 -4.9689132 -2.139725
460 3 6.4013829 -5.177105 -2.1121221
461 3 6.2170601 -5.2931948 -2.2539649
462 3 5.9115072 -5.3995981 -2.2009471
463 3 5.6555372 -5.588882 -2.1915259
464 3 5.4007492 -5.73069 -2.248817
465 3 5.23944 -5.8775048 -2.129755
466 3 5.015564 -6.0680962 -2.123667
467 3 4.7751003 -6.2958999 -2.065186
468 3 4.591907 -6.4233971 -1.981964
469 4 4.3778682 -6.606205 -1.863121
470 4 4.1499262 -6.7621298 -1.905573
471 4 3.865169 -6.9064022 -1.99087
472 4 3.6601689 -7.020216 -2.0021591
473 4 3.4406941 -7.1822748 -1.920597
474 4 3.1888721 -7.3231769 -1.918573
475 4 2.99167 -7.5297771 -1.938843
476 4 2.7273569 -7.667737 -1.922171
477 4 2.528687 -7.8957992 -1.79644
478 4 2.3044939 -8.0496464 -1.802626
479 4 2.035233 -8.2116699 -1.757429
480 4 1.897509 -8.3376198 -1.758934
481 3 1.628744 -8.4967861 -1.8273391
482 3 1.424791 -8.6410065 -1.7855851
483 3 1.164114 -8.8020802 -1.863615
484 3 0.9911252 -8.9607888 -1.8792862
485 3 0.7170658 -9.0975533 -1.897619
486 3 0.4390926 -9.2438049 -1.9318712
487 3 0.2064991 -9.3329468 -1.949827
488 3 0.0172024 -9.5050831 -2.0098209
489 3 -0.1761723 -9.6738854 -1.912382
490 3 -0.469099 -9.8630676 -1.970762
491 3 -0.6762714 -10.0026102 -1.862679
492 3 -0.8467542 -10.2116003 -1.830452
493 4 -1.102793 -10.2876301 -1.730103
494 4 -1.294516 -10.4650297 -1.753176
495 4 -1.546534 -10.6844597 -1.795923
496 4 -1.7418 -10.8159704 -1.888304
497 4 -1.987249 -10.9362298 -1.753336
498 4 -2.221422 -11.1551504 -1.7182831
499 4 -2.4308989 -11.2876797 -1.609131
500 4 -2.645906 -11.4444399 -1.577299
501 4 -2.8552762 -11.6064196 -1.471571
502 4 -3.06336 -11.7359305 -1.353195
503 4 -3.2105961 -11.9674302 -1.280884
504 4 -3.392302 -12.0984402 -1.170748
505 3 12.2644596 -1.150209 -0.1530743
506 3 12.0773096 -1.22912 -0.3038502
507 3 11.87463 -1.383297 -0.3530312
508 3 11.6111603 -1.532337 -0.4736977
509 3 11.3722496 -1.649764 -0.5528641
510 3 11.2047997 -1.7428041 -0.7414017
511 3 10.9512196 -1.855288 -0.843628
512 3 10.7709399 -1.976192 -1.045753
513 3 10.6007605 -2.1223879 -1.26152
514 3 10.3627596 -2.229702 -1.299459
515 3 10.1643295 -2.3485329 -1.495968
516 3 9.906685 -2.5630169 -1.419439
517 4 9.6619969 -2.647631 -1.4250161
518 4 9.4334488 -2.8162999 -1.54961
519 4 9.1802683 -3.026382 -1.4507391
520 4 8.9893666 -3.1278379 -1.5578211
521 4 8.7656117 -3.2616439 -1.561571
522 4 8.5274372 -3.4195421 -1.570208
523 4 8.2475844 -3.5549031 -1.634001
524 4 8.0340004 -3.711052 -1.64115
525 4 7.8235092 -3.868877 -1.704002
526 4 7.6021638 -4.0369658 -1.705877
527 4 7.3408671 -4.184032 -1.854311
528 4 7.2048278 -4.3695459 -1.852753
529 3 6.9464188 -4.45747 -1.987869
530 3 6.7280622 -4.6186939 -2.037477
531 3 6.4875641 -4.7539759 -1.991686
532 3 6.2487278 -4.942134 -2.101824
533 3 6.0058861 -5.0852909 -2.1767039
534 3 5.7377148 -5.201488 -2.1890531
535 3 5.5429268 -5.358057 -2.1786881
536 3 5.2938461 -5.552135 -2.116117
537 3 5.055964 -5.6918412 -2.121412
538 3 4.8487092 -5.857214 -2.0530801
539 3 4.6328621 -6.044446 -1.94458
540 3 4.4378629 -6.2432361 -1.89661
541 4 4.1939702 -6.3518872 -1.852514
542 4 3.9911772 -6.5288182 -1.923077
543 4 3.761041 -6.652576 -1.859833
544 4 3.5323379 -6.8174138 -1.897943
545 4 3.2638459 -6.973176 -1.888615
546 4 3.054029 -7.122148 -1.825037
547 4 2.859324 -7.314354 -1.869125
548 4 2.6277969 -7.4869628 -1.802248
549 4 2.4096961 -7.6293001 -1.758108
550 4 2.135495 -7.781189 -1.728596
551 4 1.910196 -7.9137322 -1.636217
552 4 1.686945 -8.0768909 -1.7495541
553 3 1.452749 -8.2473621 -1.7425521
554 3 1.233515 -8.4198571 -1.776266
555 3 1.044241 -8.555914 -1.76298
556 3 0.8016109 -8.7335549 -1.738577
557 3 0.5844402 -8.8501072 -1.765726
558 3 0.3465633 -9.02421 -1.77319
559 3 0.1103039 -9.1636849 -1.835428
560 3 -0.1635342 -9.3250847 -1.888033
561 3 -0.3546543 -9.4651814 -1.851944
562 3 -0.6023579 -9.637413 -1.8430902
563 3 -0.7521343 -9.8421402 -1.762974
564 3 -1.017069 -9.9353162 -1.742582
565 4 -1.184931 -10.09377 -1.7147711
566 4 -1.510111 -10.2585001 -1.7710001
567 4 -1.697542 -10.4287701 -1.765327
568 4 -1.919718 -10.5469504 -1.731997
569 4 -2.105844 -10.7607403 -1.703524
570 4 -2.331785 -10.9643698 -1.608622
571 4 -2.56566 -11.0944405 -1.516479
572 4 -2.7774601 -11.23176 -1.4467911
573 4 -2.986799 -11.3808003 -1.321381
574 4 -3.147985 -11.5449896 -1.2377
575 4 -3.3832259 -11.7477904 -1.1527
576 4 -3.6151071 -11.9135904 -1.168909
577 3 12.0376196 -0.9093614 -0.1659145
578 3 11.8796196 -1.074502 -0.1845455
579 3 11.65872 -1.185905 -0.2838783
580 3 11.5142403 -1.269131 -0.4388885
581 3 11.2134705 -1.411353 -0.5558567
582 3 11.0138102 -1.51836 -0.699049
583 3 10.8301497 -1.619699 -0.8559476
584 3 10.6724701 -1.750919 -1.064127
585 3 10.4530697 -1.889482 -1.2159211
586 3 10.2174597 -1.95777 -1.371607
587 3 10.0013304 -2.191957 -1.372313
588 3 9.7082472 -2.3027511 -1.386827
589 4 9.549799 -2.453444 -1.4043731
590 4 9.2742615 -2.650887 -1.3213461
591 4 9.0538368 -2.7765751 -1.309891
592 4 8.8316937 -2.906105 -1.352015
593 4 8.6133919 -3.089875 -1.360939
594 4 8.3511906 -3.232384 -1.4927351
595 4 8.1237764 -3.377846 -1.583403
596 4 7.929708 -3.4985421 -1.626287
597 4 7.6877499 -3.646905 -1.6961171
598 4 7.4648052 -3.7435911 -1.6900541
599 4 7.254334 -3.96362 -1.790995
600 4 7.0392609 -4.056674 -1.831161
601 3 6.8121019 -4.260334 -1.895626
602 3 6.6109171 -4.4166641 -1.930826
603 3 6.3084259 -4.6084652 -1.947515
604 3 6.083992 -4.7439871 -1.998522
605 3 5.8599148 -4.853521 -2.031733
606 3 5.598826 -4.99715 -2.0095479
607 3 5.3670578 -5.1583839 -2.0692411
608 3 5.0939279 -5.287971 -2.0647559
609 3 4.880911 -5.4671679 -1.972908
610 3 4.7134691 -5.6317001 -1.928236
611 3 4.4953771 -5.8242378 -1.88862
612 3 4.3133149 -5.9438892 -1.802595
613 4 4.0305028 -6.1474681 -1.877489
614 4 3.8314221 -6.2898908 -1.879261
615 4 3.613015 -6.4726 -1.879877
616 4 3.3659279 -6.590755 -1.81439
617 4 3.142766 -6.7740932 -1.778057
618 4 2.939288 -6.9242512 -1.782282
619 4 2.7072501 -7.0849242 -1.692135
620 4 2.4571469 -7.2564082 -1.66556
621 4 2.214335 -7.423656 -1.73612
622 4 2.0039339 -7.5504213 -1.5824601
623 4 1.80044 -7.7388659 -1.638029
624 4 1.550894 -7.884603 -1.631681
625 3 1.333666 -8.0428524 -1.6744421
626 3 1.125429 -8.2528858 -1.598143
627 3 0.8679372 -8.4264088 -1.63093
628 3 0.6754246 -8.5707875 -1.685463
629 3 0.4463291 -8.6846047 -1.6067701
630 3 0.1502438 -8.8300343 -1.751051
631 3 -0.0538311 -8.9299012 -1.828573
632 3 -0.302 -9.116499 -1.717405
633 3 -0.5129757 -9.2594605 -1.756321
634 3 -0.7052059 -9.4508934 -1.7155251
635 3 -0.902052 -9.5895138 -1.627523
636 3 -1.156569 -9.720768 -1.710747
637 4 -1.423319 -9.8520966 -1.678118
638 4 -1.612764 -10.0707998 -1.694878
639 4 -1.808561 -10.2210398 -1.750423
640 4 -2.06901 -10.3823795 -1.642025
641 4 -2.1860681 -10.5179396 -1.552681
642 4 -2.4055271 -10.7282801 -1.456553
643 4 -2.68643 -10.8912202 -1.414465
644 4 -2.8546392 -10.98526 -1.282108
645 4 -3.122854 -11.16817 -1.2743321
646 4 -3.3477001 -11.3339005 -1.225996
647 4 -3.5442491 -11.49891 -1.1080509
648 4 -3.654444 -11.6844397 -1.022449
649 3 11.9172602 -0.683043 -0.1717415
650 3 11.7675505 -0.8368516 -0.2067375
651 3 11.4903002 -0.9311204 -0.3611755
652 3 11.3316803 -1.076839 -0.4723873
653 3 11.1229801 -1.165808 -0.6573563
654 3 10.9499998 -1.268619 -0.7321167
655 3 10.724 -1.412562 -0.8964406
656 3 10.4730797 -1.537697 -0.9842492
657 3 10.2996397 -1.665601 -1.152527
658 3 10.0812502 -1.761832 -1.2790721
659 3 9.8673392 -1.914187 -1.274712
660 3 9.6061602 -2.0287321 -1.277494
661 4 9.3550186 -2.220964 -1.326944
662 4 9.1504955 -2.4220231 -1.277908
663 4 8.9453736 -2.5537081 -1.3192901
664 4 8.6846085 -2.7217841 -1.250824
665 4 8.4854069 -2.8312571 -1.355387
666 4 8.212986 -3.0180669 -1.342361
667 4 8.0033798 -3.1651709 -1.453028
668 4 7.7707939 -3.259964 -1.4951021
669 4 7.5447002 -3.471402 -1.598673
670 4 7.2763939 -3.5763231 -1.662712
671 4 7.056684 -3.7012751 -1.671013
672 4 6.8560328 -3.90378 -1.763979
673 3 6.628326 -4.037364 -1.899334
674 3 6.4124818 -4.1855068 -1.78686
675 3 6.19033 -4.346057 -1.853817
676 3 5.9617538 -4.5232063 -1.870874
677 3 5.7069121 -4.6716872 -1.872366
678 3 5.486373 -4.8027721 -1.936504
679 3 5.1966119 -4.9308182 -1.985931
680 3 5.029799 -5.1116762 -1.897728
681 3 4.7945142 -5.2550902 -1.908848
682 3 4.5729652 -5.417161 -1.840569
683 3 4.3429828 -5.6313892 -1.777445
684 3 4.116817 -5.7608252 -1.7979681
685 4 3.8599142 -5.922668 -1.8320331
686 4 3.66204 -6.080482 -1.806684
687 4 3.460078 -6.21208 -1.7872011
688 4 3.219718 -6.4164901 -1.778616
689 4 3.0029459 -6.5529132 -1.650007
690 4 2.765666 -6.743289 -1.619764
691 4 2.5451191 -6.852253 -1.580637
692 4 2.3357229 -7.0501838 -1.568628
693 4 2.0928791 -7.186285 -1.5801931
694 4 1.865309 -7.3443089 -1.6003781
695 4 1.661512 -7.4780441 -1.594795
696 4 1.428427 -7.6575651 -1.583794
697 3 1.189375 -7.8451848 -1.539711
698 3 0.943575 -7.946662 -1.60552
699 3 0.7400646 -8.1618786 -1.598774
700 3 0.4508648 -8.3043308 -1.6009161
701 3 0.2454281 -8.4325218 -1.556162
702 3 0.0359859 -8.5658665 -1.596159
703 3 -0.1780987 -8.7293816 -1.638168
704 3 -0.4322453 -8.8470306 -1.757519
705 3 -0.6588917 -9.0380545 -1.726566
706 3 -0.8784352 -9.1714439 -1.612173
707 3 -1.065439 -9.3691578 -1.61437
708 3 -1.2836781 -9.5558415 -1.615881
709 4 -1.5442751 -9.6946907 -1.6120171
710 4 -1.7806421 -9.8446884 -1.625513
711 4 -1.972383 -9.9742126 -1.577713
712 4 -2.2423761 -10.10954 -1.5839041
713 4 -2.372313 -10.3009796 -1.4039331
714 4 -2.559156 -10.4850102 -1.319662
715 4 -2.8048921 -10.6300297 -1.306051
716 4 -2.9856132 -10.7828102 -1.212729
717 4 -3.2556019 -10.9445296 -1.178329
718 4 -3.4386351 -11.0977497 -1.065771
719 4 -3.6471 -11.2549801 -0.9396516
720 4 -3.8603312 -11.4363098 -0.966938
721 3 11.7918396 -0.4901357 -0.099865
722 3 11.6329603 -0.4964328 -0.2526608
723 3 11.3924399 -0.675365 -0.4090252
724 3 11.1621504 -0.7838998 -0.432724
725 3 10.9671898 -0.9091316 -0.5699863
726 3 10.7823801 -1.056779 -0.7615013
727 3 10.5783997 -1.218655 -0.8559456
728 3 10.3376799 -1.262993 -1.056023
729 3 10.0952301 -1.429018 -1.077225
730 3 9.8706932 -1.539919 -1.176052
731 3 9.6890488 -1.680794 -1.2376
732 3 9.4074574 -1.866285 -1.236925
733 4 9.2305107 -1.9918622 -1.220907
734 4 8.9873972 -2.1605811 -1.183884
735 4 8.7251024 -2.3151081 -1.159351
736 4 8.5932637 -2.5121241 -1.217543
737 4 8.2574368 -2.638582 -1.357645
738 4 8.0542259 -2.787843 -1.330147
739 4 7.8531232 -2.9295462 -1.3595541
740 4 7.5767231 -3.094641 -1.3813
741 4 7.3642082 -3.1954689 -1.4763221
742 4 7.1255708 -3.415757 -1.5788731
743 4 6.9549962 -3.5022631 -1.5901851
744 4 6.7383819 -3.6574641 -1.638693
745 3 6.44522 -3.8413452 -1.740831
746 3 6.260077 -3.968328 -1.7345051
747 3 6.0469131 -4.1939902 -1.649155
748 3 5.8428922 -4.320251 -1.722872
749 3 5.6204071 -4.4716273 -1.7893241
750 3 5.350234 -4.565454 -1.853258
751 3 5.1376548 -4.71277 -1.797159
752 3 4.9029322 -4.8766862 -1.857498
753 3 4.613708 -5.0695281 -1.8209651
754 3 4.4226113 -5.2406192 -1.728661
755 3 4.2063069 -5.4288059 -1.725634
756 3 4.0253282 -5.5153322 -1.835621
757 4 3.7350991 -5.6379562 -1.7949471
758 4 3.4742 -5.7861281 -1.80965
759 4 3.249253 -5.963737 -1.7922
760 4 3.0693431 -6.1262341 -1.722536
761 4 2.887528 -6.3163438 -1.54847
762 4 2.7285431 -6.4569278 -1.476324
763 4 2.4370721 -6.6612258 -1.530497
764 4 2.2145009 -6.823184 -1.4589501
765 4 1.963225 -6.9863248 -1.437513
766 4 1.71385 -7.100523 -1.4664461
767 4 1.463156 -7.2341418 -1.534155
768 4 1.236692 -7.4423671 -1.5792051
769 3 1.055128 -7.6010609 -1.518808
770 3 0.8044071 -7.713346 -1.550386
771 3 0.604681 -7.8815232 -1.5994931
772 3 0.3393688 -8.0643654 -1.503942
773 3 0.0918102 -8.2049236 -1.50861
774 3 -0.1215153 -8.3422318 -1.606184
775 3 -0.3418713 -8.5127115 -1.630949
776 3 -0.5582714 -8.6137963 -1.643906
777 3 -0.7849369 -8.8311711 -1.599258
778 3 -1.025225 -8.9384118 -1.587484
779 3 -1.258081 -9.1063576 -1.570051
780 3 -1.491678 -9.2513771 -1.6005991
781 4 -1.685843 -9.4455357 -1.5308321
782 4 -1.940577 -9.5615025 -1.5396561
783 4 -2.150331 -9.7072926 -1.5371421
784 4 -2.3396659 -9.876812 -1.439814
785 4 -2.5603051 -10.0770502 -1.3897901