ITEM: TIMESTEP
1
ITEM: NUMBER OF ATOMS
85964
ITEM: BOX BOUNDS pp pp pp
-15.085 15.085
-15.085 15.085
-15.085 15.085
ITEM: ATOMS id type x y z
1 3 -1.255028 -7.4742022 11.3121596
2 3 -1.244053 -7.6129918 11.1296501
3 3 -1.116344 -7.748776 10.8710404
4 3 -0.9863806 -7.7800513 10.6227103
5 3 -0.8017445 -7.7718311 10.28617
6 3 -0.7045908 -7.7272482 10.02911
7 3 -0.6131668 -7.972733 9.7881117
8 3 -0.527463 -7.9464122 9.5031624
9 3 -0.3854904 -7.96485 9.3129206
10 3 -0.2210007 -8.0020666 9.0752049
11 3 -0.1289721 -8.1247187 8.7846174
12 3 0.0032635 -8.0921316 8.5205899
13 3 0.1536608 -8.1240854 8.2553482
14 3 0.1888618 -8.2637892 8.0241737
15 3 0.2589483 -8.2620077 7.7926288
16 3 0.3184013 -8.3243036 7.532248
17 3 0.4499474 -8.3360109 7.287293
18 3 0.6282884 -8.4083033 6.997265
19 3 0.6230612 -8.480588 6.776165
20 3 0.7096539 -8.5032568 6.4643269
21 3 0.8467112 -8.505435 6.269413
22 3 0.981863 -8.4714537 5.998106
23 3 1.184334 -8.5874415 5.7624812
24 3 1.332453 -8.5661192 5.5305381
25 3 1.476695 -8.6280947 5.3398528
26 3 1.646613 -8.6333304 5.0940671
27 3 1.851221 -8.6281691 4.9459382
28 3 2.1361201 -8.6524248 4.7375641
29 3 2.3375449 -8.5669356 4.580606
30 3 2.510633 -8.4908343 4.369472
31 3 2.6981969 -8.4817744 4.123003
32 3 2.7694421 -8.5601778 3.851724
33 3 2.950635 -8.5708266 3.702312
34 3 3.138005 -8.5202799 3.427635
35 3 3.3244569 -8.4661036 3.2364171
36 3 3.545847 -8.3860827 3.0658181
37 3 3.6401351 -8.511817 2.7333529
38 3 3.8046141 -8.5096865 2.5422039
39 3 4.0503869 -8.505868 2.381043
40 3 4.1816859 -8.431346 2.164341
41 3 4.4633589 -8.3179979 2.075583
42 3 4.6030989 -8.3922663 1.851419
43 3 4.8790012 -8.3331099 1.627751
44 3 5.0187631 -8.3498583 1.388493
45 3 5.220016 -8.3267489 1.183252
46 3 5.3025499 -8.4234343 0.927907
47 3 5.5047832 -8.4804831 0.6953344
48 3 5.5720921 -8.4478178 0.4332228
49 3 5.8437128 -8.3306971 0.2746611
50 3 5.9812522 -8.3723936 0.0986652
51 3 6.1261621 -8.3895083 -0.134985
52 3 6.2772431 -8.3946886 -0.3485928
53 3 6.363987 -8.4525404 -0.6375484
54 3 6.5668822 -8.5535631 -0.8494588
55 3 6.665545 -8.6078921 -1.099318
56 3 6.8111139 -8.6283942 -1.362482
57 3 7.0194812 -8.55338 -1.567732
58 3 7.1778951 -8.5724364 -1.824106
59 3 7.4253779 -8.5627566 -1.990362
60 3 7.6003089 -8.5667486 -2.2062781
61 3 7.7525211 -8.4439059 -2.333776
62 3 7.921525 -8.4580488 -2.61833
63 3 8.1870852 -8.349494 -2.721262
64 3 8.3683987 -8.4068041 -2.968279
65 3 8.5170088 -8.3717432 -3.2423079
66 3 8.6628695 -8.4478808 -3.4191721
67 3 8.7661734 -8.432004 -3.655226
68 3 9.0144405 -8.3809996 -3.884611
69 3 9.1956568 -8.376029 -4.1247201
70 3 9.4135609 -8.2634554 -4.2573342
71 3 9.6009608 -8.1443892 -4.4401841
72 3 9.6995564 -8.2752581 -4.5783558
73 3 -1.404419 -7.3711882 11.19137
74 3 -1.309404 -7.480474 10.9629402
75 3 -1.217999 -7.5737891 10.7826405
76 3 -1.086484 -7.6123209 10.4747296
77 3 -1.068607 -7.701602 10.1868696
78 3 -0.885708 -7.6657481 9.91782
79 3 -0.8554296 -7.7298231 9.7078944
80 3 -0.6341887 -7.787436 9.4200974
81 3 -0.481945 -7.828475 9.2375097
82 3 -0.3964586 -7.9146128 8.9741716
83 3 -0.2423344 -7.9245138 8.6885348
84 3 -0.1579514 -7.9273082 8.4736147
85 3 -0.0302591 -7.982915 8.2261181
86 3 0.0903301 -8.0104342 7.9520302
87 3 0.190136 -8.0814257 7.728786
88 3 0.2569933 -8.1053038 7.456543
89 3 0.4266796 -8.1434345 7.2414642
90 3 0.5034724 -8.1882935 6.9373232
91 3 0.5351524 -8.2642679 6.642879
92 3 0.5782394 -8.2916117 6.4010582
93 3 0.6980772 -8.3414984 6.151331
94 3 0.892357 -8.3597956 5.9065042
95 3 1.042625 -8.3467445 5.6950932
96 3 1.247705 -8.4053106 5.4727421
97 3 1.39245 -8.3932009 5.2493329
98 3 1.5577721 -8.3792467 5.0489421
99 3 1.7767821 -8.3811751 4.8312841
100 3 1.980167 -8.3719473 4.6816859
101 3 2.159075 -8.367116 4.431274
102 3 2.3882799 -8.3736124 4.3172131
103 3 2.558846 -8.393014 4.009356
104 3 2.685133 -8.3473063 3.8141201
105 3 2.864511 -8.3825884 3.540937
106 3 3.027302 -8.3908091 3.291888
107 3 3.2252729 -8.2845411 3.2073309
108 3 3.343508 -8.3530989 2.905483
109 3 3.514638 -8.3606043 2.651685
110 3 3.708791 -8.3009577 2.4605999
111 3 3.8877882 -8.2727652 2.250824
112 3 4.076479 -8.2465983 2.085521
113 3 4.3280401 -8.1490126 1.95187
114 3 4.530066 -8.1559897 1.7739511
115 3 4.742465 -8.1908922 1.555401
116 3 4.95249 -8.1724672 1.3319171
117 3 5.0393462 -8.2201471 1.062598
118 3 5.173203 -8.305316 0.8275709
119 3 5.2678352 -8.3065062 0.5730696
120 3 5.466866 -8.2377806 0.4292231
121 3 5.6216779 -8.2037687 0.1517315
122 3 5.7915712 -8.2681551 -0.0382824
123 3 5.9723892 -8.2110415 -0.3137341
124 3 6.1490908 -8.2361021 -0.4908276
125 3 6.2331491 -8.272212 -0.7302227
126 3 6.3695192 -8.3921309 -1.031961
127 3 6.543859 -8.3867769 -1.171919
128 3 6.7357779 -8.3908987 -1.4202401
129 3 6.920073 -8.3985825 -1.681055
130 3 7.0486922 -8.4126597 -1.887697
131 3 7.2667232 -8.3615961 -2.060221
132 3 7.467691 -8.3851671 -2.285547
133 3 7.664908 -8.355876 -2.496321
134 3 7.866057 -8.2729635 -2.6357441
135 3 8.0291843 -8.2016058 -2.842741
136 3 8.2455855 -8.2243319 -3.030695
137 3 8.4299212 -8.2228165 -3.2816031
138 3 8.480012 -8.2032518 -3.4968009
139 3 8.707057 -8.2167502 -3.7699449
140 3 8.8611774 -8.2138872 -3.9906982
141 3 9.0751925 -8.1669893 -4.1326809
142 3 9.2285814 -8.1666308 -4.3672848
143 3 9.4478483 -8.1139917 -4.5571652
144 3 9.5259419 -8.1839361 -4.748087
145 3 -1.639452 -7.2799368 11.0763102
146 3 -1.427661 -7.2584958 10.88128
147 3 -1.406593 -7.3911219 10.5968304
148 3 -1.262569 -7.4230619 10.3554297
149 3 -1.147203 -7.4631949 10.10462
150 3 -1.0776629 -7.4796801 9.893837
151 3 -0.8681946 -7.449924 9.6375275
152 3 -0.700531 -7.4811659 9.3777638
153 3 -0.6124306 -7.579535 9.0724077
154 3 -0.5891914 -7.7333231 8.8581058
155 3 -0.4035358 -7.7593999 8.6049023
156 3 -0.2176218 -7.7000652 8.3288345
157 3 -0.1432905 -7.7747388 8.0866928
158 3 -0.060173 -7.783422 7.8158131
159 3 0.0770073 -7.8363471 7.6184731
160 3 0.1550407 -7.8806958 7.324482
161 3 0.2756233 -7.9397822 7.078434
162 3 0.3634844 -7.9690872 6.886806
163 3 0.4412708 -8.0265856 6.566628
164 3 0.508258 -8.0711756 6.3287678
165 3 0.6673355 -8.0761232 6.091116
166 3 0.7996445 -8.1277552 5.824718
167 3 0.9876242 -8.1118631 5.6305409
168 3 1.161337 -8.1664705 5.3843842
169 3 1.319495 -8.1212168 5.1824551
170 3 1.4389251 -8.1599798 4.9326792
171 3 1.7035201 -8.1406336 4.7679649
172 3 1.854134 -8.1746588 4.513001
173 3 2.065882 -8.1370859 4.3558798
174 3 2.258975 -8.1013117 4.1387768
175 3 2.423276 -8.0812883 3.965016
176 3 2.6486631 -8.0825758 3.7032891
177 3 2.804178 -8.1035547 3.4162121
178 3 2.962271 -8.1157446 3.22719
179 3 3.0768881 -8.1337404 3.0216961
180 3 3.2067781 -8.161231 2.7646289
181 3 3.4206541 -8.1519499 2.5900409
182 3 3.5889349 -8.1139288 2.3772471
183 3 3.7594681 -8.097249 2.1430099
184 3 3.9424802 -8.0694513 1.947427
185 3 4.1969409 -8.000205 1.814839
186 3 4.3731818 -7.987485 1.5865881
187 3 4.5818472 -8.0199347 1.4416601
188 3 4.8242841 -7.91846 1.251822
189 3 4.9252072 -8.0016699 1.008536
190 3 5.0389948 -7.9741512 0.7858191
191 3 5.1324391 -8.0417995 0.4812288
192 3 5.3059979 -8.0943537 0.249999
193 3 5.3877759 -8.0878077 0.0330753
194 3 5.5598469 -8.0990858 -0.1926022
195 3 5.790155 -8.0830069 -0.3906498
196 3 5.9196162 -8.148221 -0.630476
197 3 6.1036372 -8.1066256 -0.8835202
198 3 6.2622018 -8.2182131 -1.0696811
199 3 6.3939729 -8.1794767 -1.3184071
200 3 6.616098 -8.1594744 -1.550859
201 3 6.8012762 -8.1477652 -1.704157
202 3 6.9160892 -8.1763868 -1.956419
203 3 7.143352 -8.1264935 -2.138231
204 3 7.311966 -8.1666498 -2.3821581
205 3 7.4410548 -8.1678114 -2.5265901
206 3 7.677568 -8.0894804 -2.809084
207 3 7.8992958 -8.0624065 -2.971819
208 3 8.077899 -8.004405 -3.14662
209 3 8.2170801 -8.0088949 -3.4068279
210 3 8.3631125 -8.0217886 -3.644747
211 3 8.5444727 -8.0288935 -3.882891
212 3 8.7090111 -8.0388308 -4.0747662
213 3 8.9407902 -7.993197 -4.2356401
214 3 9.1150475 -7.9693562 -4.4472332
215 3 9.2147036 -8.0021276 -4.7042222
216 3 9.3548298 -7.9607802 -4.878469
217 3 -1.7024831 -6.9893432 10.95016
218 3 -1.650358 -7.0911779 10.7601004
219 3 -1.547209 -7.1601381 10.50768
220 3 -1.4484921 -7.2380552 10.23594
221 3 -1.3198201 -7.230443 10.02843
222 3 -1.181505 -7.287457 9.7305546
223 3 -1.042727 -7.3105898 9.5227356
224 3 -0.8476296 -7.2825208 9.2750301
225 3 -0.7789822 -7.3944979 9.0182209
226 3 -0.6265306 -7.4329582 8.7763014
227 3 -0.5277863 -7.472219 8.5219784
228 3 -0.4549456 -7.525146 8.2588797
229 3 -0.3441782 -7.5430079 8.0266762
230 3 -0.2050972 -7.6587882 7.7278581
231 3 -0.1090183 -7.6553011 7.4367409
232 3 0.004776 -7.6738482 7.308929
233 3 0.1060295 -7.6837821 7.054863
234 3 0.233304 -7.7627459 6.7992492
235 3 0.3695183 -7.811297 6.5045719
236 3 0.4810925 -7.8347769 6.2496929
237 3 0.6177025 -7.7966929 6.0177789
238 3 0.8025284 -7.8345289 5.816792
239 3 0.8879434 -7.859231 5.5713372
240 3 1.045603 -7.896474 5.282043
241 3 1.181319 -7.9095702 5.0972099
242 3 1.37351 -7.90721 4.8674278
243 3 1.512728 -7.925221 4.6086912
244 3 1.687382 -7.9316258 4.3911748
245 3 1.96303 -7.943843 4.2624512
246 3 2.1646431 -7.9046432 4.07585
247 3 2.3744049 -7.885819 3.8298891
248 3 2.4868181 -7.928441 3.619318
249 3 2.658979 -7.861661 3.3680949
250 3 2.776089 -7.9249512 3.1551499
251 3 2.9790832 -7.8588228 2.929029
252 3 3.1103921 -7.8845612 2.690085
253 3 3.2481671 -7.8602042 2.4784901
254 3 3.409765 -7.920897 2.2599089
255 3 3.5888059 -7.9025888 1.979095
256 3 3.801019 -7.8694048 1.834782
257 3 4.0738392 -7.8172331 1.6247521
258 3 4.2200661 -7.8408772 1.485901
259 3 4.4582968 -7.8042712 1.313669
260 3 4.6043539 -7.7781439 1.012383
261 3 4.8194518 -7.7109819 0.916463
262 3 4.926478 -7.7684179 0.6613531
263 3 5.0441308 -7.7858062 0.3963957
264 3 5.188478 -7.812871 0.1457615
265 3 5.2825809 -7.914876 -0.0696011
266 3 5.4770398 -7.8594142 -0.3051891
267 3 5.610806 -7.8929262 -0.5631886
268 3 5.7508211 -7.9346 -0.7291927
269 3 5.943792 -7.881137 -0.9436742
270 3 6.098639 -7.941884 -1.2298451
271 3 6.3644018 -7.93213 -1.400331
272 3 6.4746628 -7.9779272 -1.624537
273 3 6.6314011 -7.9570132 -1.87948
274 3 6.8117738 -7.9378162 -2.0498099
275 3 7.0283709 -7.950997 -2.2355371
276 3 7.2281361 -7.9324498 -2.467649
277 3 7.3361359 -7.9359708 -2.6838019
278 3 7.5138178 -7.922259 -2.8885442
279 3 7.7178402 -7.913733 -3.1183071
280 3 7.880899 -7.8799448 -3.381105
281 3 8.0551596 -7.803443 -3.560102
282 3 8.1908512 -7.8252249 -3.751776
283 3 8.2683697 -7.8263269 -3.992743
284 3 8.5603066 -7.7458639 -4.1464558
285 3 8.7897654 -7.7644382 -4.3860841
286 3 8.8892556 -7.8246131 -4.6413942
287 3 9.0820847 -7.8193922 -4.8579432
288 3 9.2287092 -7.8290072 -5.0507031
289 3 -1.8972322 -6.7724262 10.84268
290 3 -1.8020801 -6.8541632 10.6183596
291 3 -1.698041 -6.9748392 10.3679104
292 3 -1.636518 -7.0579371 10.1645298
293 3 -1.419101 -7.024404 9.9061872
294 3 -1.3211401 -7.0684209 9.6547432
295 3 -1.120522 -7.072021 9.4385777
296 3 -1.025713 -7.114686 9.145649
297 3 -0.937891 -7.2141581 8.8979398
298 3 -0.8560028 -7.294251 8.6454449
299 3 -0.7823563 -7.3325029 8.4003706
300 3 -0.6799459 -7.3624621 8.0711927
301 3 -0.4863968 -7.359757 7.8842392
302 3 -0.3697948 -7.3940358 7.6323381
303 3 -0.170023 -7.3334298 7.4179249
304 3 -0.0739498 -7.3717051 7.2063789
305 3 0.0106735 -7.4641752 6.9216672
306 3 0.1357021 -7.4763379 6.7265468
307 3 0.3125057 -7.5725069 6.4615612
308 3 0.3969221 -7.5577779 6.22298
309 3 0.535677 -7.5509649 5.9098802
310 3 0.7905617 -7.5223212 5.7541452
311 3 0.8936558 -7.5886412 5.5406041
312 3 1.059711 -7.6073752 5.306366
313 3 1.094857 -7.6529489 5.0170708
314 3 1.277573 -7.7168322 4.8178611
315 3 1.42801 -7.6807642 4.5403819
316 3 1.6170861 -7.7160349 4.3669028
317 3 1.797428 -7.6686182 4.125732
318 3 2.0573649 -7.63621 3.9683422
319 3 2.231689 -7.6448722 3.7434311
320 3 2.355614 -7.680749 3.5336299
321 3 2.420044 -7.723886 3.228677
322 3 2.6724921 -7.6857271 3.0318699
323 3 2.876255 -7.5783191 2.867105
324 3 2.984107 -7.6579333 2.6218791
325 3 3.1551671 -7.717813 2.4026959
326 3 3.2808771 -7.6342879 2.1618249
327 3 3.4853339 -7.6112619 1.92275
328 3 3.660707 -7.6455469 1.7283091
329 3 3.874819 -7.6529799 1.49522
330 3 4.142211 -7.6249862 1.329404
331 3 4.2489782 -7.6533122 1.0938391
332 3 4.471467 -7.5419698 0.9290038
333 3 4.681767 -7.4791842 0.8110399
334 3 4.873191 -7.5559049 0.542388
335 3 4.9586868 -7.560616 0.2981615
336 3 5.1185422 -7.6063428 0.0907841
337 3 5.1706572 -7.6458669 -0.1590366
338 3 5.3284121 -7.671876 -0.3869991
339 3 5.4924069 -7.6828451 -0.6037236
340 3 5.6470952 -7.6863871 -0.8443966
341 3 5.8229361 -7.704186 -1.079645
342 3 6.0298371 -7.7228842 -1.285337
343 3 6.2232509 -7.684104 -1.48303
344 3 6.2912212 -7.76789 -1.782534
345 3 6.4593358 -7.72084 -1.966837
346 3 6.692977 -7.7197032 -2.1682799
347 3 6.8652682 -7.7648502 -2.352674
348 3 7.0239782 -7.7146292 -2.5649321
349 3 7.2037058 -7.6906648 -2.854383
350 3 7.3725629 -7.6849761 -3.0323091
351 3 7.5235 -7.729424 -3.253084
352 3 7.7036352 -7.6654558 -3.4227891
353 3 7.8558002 -7.6943751 -3.6628781
354 3 7.988009 -7.676528 -3.914667
355 3 8.1944485 -7.624713 -4.0974979
356 3 8.3945007 -7.6354862 -4.3475971
357 3 8.5680666 -7.6793361 -4.5660463
358 3 8.7883425 -7.6936498 -4.760706
359 3 8.898697 -7.6730032 -4.988474
360 3 9.0759802 -7.7226839 -5.1906028
361 3 -2.0309229 -6.6049242 10.7138901
362 3 -1.958186 -6.6371451 10.4363604
363 3 -1.91469 -6.814879 10.2286596
364 3 -1.7649781 -6.837821 10.0194397
365 3 -1.605731 -6.8691802 9.7998867
366 3 -1.522025 -6.8983322 9.5591145
367 3 -1.285643 -6.8869352 9.317894
368 3 -1.2270041 -6.966435 9.0175838
369 3 -1.0857559 -7.0410199 8.836216
370 3 -1.005062 -7.0794649 8.5675364
371 3 -0.8373547 -7.1211562 8.2962093
372 3 -0.753437 -7.1029182 8.0793781
373 3 -0.6287737 -7.1294789 7.8215852
374 3 -0.4363308 -7.150373 7.540009
375 3 -0.3057365 -7.1522441 7.3317571
376 3 -0.1551065 -7.1532068 7.1069069
377 3 -0.1812935 -7.2842131 6.8350811
378 3 0.0411472 -7.2255468 6.5951901
379 3 0.1969109 -7.2947021 6.3398342
380 3 0.3475609 -7.2773261 6.1637359
381 3 0.5507584 -7.2686992 5.9560852
382 3 0.6880455 -7.2615161 5.7559171
383 3 0.8052845 -7.296134 5.4441171
384 3 0.9431268 -7.307437 5.1850429
385 3 1.102455 -7.3878999 4.986382
386 3 1.20326 -7.3985219 4.7446671
387 3 1.2850061 -7.4715009 4.4372902
388 3 1.456959 -7.4609962 4.2432671
389 3 1.7224751 -7.4690809 4.0355949
390 3 1.877715 -7.480084 3.8338411
391 3 2.0553629 -7.5218401 3.584858
392 3 2.143827 -7.483274 3.4145949
393 3 2.294312 -7.4957609 3.1283729
394 3 2.510665 -7.47017 2.9456872
395 3 2.7248411 -7.3833361 2.7893729
396 3 2.871716 -7.391511 2.532362
397 3 3.057961 -7.3355279 2.3318329
398 3 3.2090781 -7.433681 2.065532
399 3 3.344269 -7.4372049 1.816852
400 3 3.6138129 -7.3863292 1.649217
401 3 3.7587731 -7.4386721 1.37667
402 3 3.9544722 -7.4167638 1.2103111
403 3 4.185678 -7.3136721 1.099824
404 3 4.3515792 -7.3194509 0.875207
405 3 4.5973468 -7.2520738 0.7259989
406 3 4.7243452 -7.2921 0.4477186
407 3 4.8671012 -7.3289962 0.2190351
408 3 4.985435 -7.3853979 -0.0265293
409 3 5.0638452 -7.440042 -0.3017063
410 3 5.2891269 -7.428452 -0.4611416
411 3 5.407289 -7.4686518 -0.6992702
412 3 5.5526018 -7.4671111 -0.948946
413 3 5.6892181 -7.4796191 -1.205599
414 3 5.855713 -7.4769411 -1.403433
415 3 5.990873 -7.504972 -1.652746
416 3 6.2870379 -7.51121 -1.7777391
417 3 6.3944969 -7.438386 -2.0010741
418 3 6.5540209 -7.4956351 -2.2535
419 3 6.7195649 -7.4439903 -2.440073
420 3 6.91293 -7.5090461 -2.6941431
421 3 7.0917511 -7.482049 -2.903509
422 3 7.2601771 -7.4979558 -3.1183341
423 3 7.4242149 -7.4736009 -3.3641679
424 3 7.5256582 -7.4774332 -3.5546401
425 3 7.7847152 -7.4283862 -3.743979
426 3 7.875588 -7.4782591 -3.974062
427 3 8.0404663 -7.5176101 -4.2508221
428 3 8.1819601 -7.5037222 -4.4523678
429 3 8.3620625 -7.506022 -4.725061
430 3 8.5304384 -7.5446601 -4.904799
431 3 8.7403012 -7.6022411 -5.1814399
432 3 8.8823844 -7.5173011 -5.323225
433 3 -2.1986311 -6.460794 10.6099501
434 3 -2.1109359 -6.510757 10.3808298
435 3 -2.0287211 -6.640254 10.0883503
436 3 -1.972285 -6.6621561 9.8737106
437 3 -1.8367291 -6.7028508 9.6765967
438 3 -1.652853 -6.7166028 9.3912926
439 3 -1.541296 -6.7984462 9.1874294
440 3 -1.378812 -6.7810488 8.9718552
441 3 -1.3473541 -6.885663 8.6673889
442 3 -1.128717 -6.916627 8.3788109
443 3 -1.063839 -6.936976 8.1625166
444 3 -0.9188824 -6.9348312 7.924849
445 3 -0.8157539 -6.983748 7.7152691
446 3 -0.6207266 -7.0472188 7.396893
447 3 -0.4787512 -7.0096579 7.2524219
448 3 -0.3810167 -7.014894 6.952953
449 3 -0.1988163 -6.989192 6.737032
450 3 -0.1195402 -7.0272169 6.5069161
451 3 0.0931273 -7.027976 6.2895641
452 3 0.2936211 -7.02526 6.0867028
453 3 0.4681349 -6.979917 5.8790022
454 3 0.5393991 -7.0484819 5.6175781
455 3 0.7551661 -7.0385709 5.4031892
456 3 0.8656484 -7.1067319 5.1071248
457 3 1.057206 -7.058393 4.9249678
458 3 1.1562541 -7.1221862 4.6833172
459 3 1.231277 -7.1523809 4.4447508
460 3 1.3957091 -7.247035 4.143394
461 3 1.612675 -7.1917372 3.983206
462 3 1.724258 -7.202981 3.7300961
463 3 1.926421 -7.2147741 3.529078
464 3 2.08548 -7.2288942 3.303484
465 3 2.236264 -7.2434778 3.0976219
466 3 2.4104259 -7.1809321 2.89846
467 3 2.5761659 -7.2044568 2.6356731
468 3 2.8120981 -7.1099672 2.526458
469 3 2.977608 -7.1200929 2.2899239
470 3 3.1158581 -7.157527 1.964534
471 3 3.2818871 -7.1772471 1.7759531
472 3 3.485189 -7.1725068 1.53817
473 3 3.6460481 -7.1992879 1.362942
474 3 3.7752481 -7.1876988 1.112733
475 3 4.0144582 -7.1109552 0.9663248
476 3 4.2626948 -7.1027708 0.7869749
477 3 4.42697 -7.0751848 0.560153
478 3 4.5937991 -7.081758 0.3341894
479 3 4.7904401 -7.0812349 0.1710491
480 3 4.8806872 -7.1478782 -0.1668377
481 3 5.0131388 -7.154366 -0.331171
482 3 5.1772089 -7.173018 -0.5008984
483 3 5.3017531 -7.2169099 -0.8346043
484 3 5.4103022 -7.2594442 -1.038965
485 3 5.6236592 -7.2507048 -1.268049
486 3 5.7983322 -7.2458639 -1.438498
487 3 5.87881 -7.3138061 -1.7421891
488 3 6.1145611 -7.201808 -1.915255
489 3 6.2957492 -7.2258158 -2.127146
490 3 6.4271221 -7.2187452 -2.3486421
491 3 6.5874572 -7.304482 -2.6157739
492 3 6.7311211 -7.2641211 -2.801641
493 3 6.9591808 -7.3030372 -3.0085239
494 3 7.1113901 -7.246285 -3.2253211
495 3 7.1951132 -7.3322668 -3.506083
496 3 7.3953562 -7.2362599 -3.659842
497 3 7.6358209 -7.2776671 -3.877462
498 3 7.7348118 -7.2980952 -4.1288738
499 3 7.8704052 -7.3893561 -4.3996449
500 3 8.0276918 -7.3759952 -4.550982
501 3 8.2491999 -7.3042188 -4.749434
502 3 8.3734522 -7.357213 -5.0248089
503 3 8.5423365 -7.332685 -5.2252479
504 3 8.6727438 -7.3959818 -5.4240279
505 3 -2.475117 -6.423697 10.4491902
506 3 -2.35551 -6.402236 10.28197
507 3 -2.174479 -6.385489 9.9980764
508 3 -2.1051421 -6.5192771 9.7236004
509 3 -1.975786 -6.510581 9.5119429
510 3 -1.844674 -6.5757928 9.3030739
511 3 -1.646843 -6.536695 9.1117497
512 3 -1.533733 -6.5550471 8.8264752
513 3 -1.390929 -6.6581512 8.5434418
514 3 -1.26226 -6.666059 8.3408938
515 3 -1.185863 -6.6703229 8.0643787
516 3 -1.069361 -6.7197099 7.783216
517 3 -0.947981 -6.7815809 7.6079211
518 3 -0.8081388 -6.7592941 7.3452988
519 3 -0.6637249 -6.8118429 7.0771389
520 3 -0.5184841 -6.763463 6.8521042
521 3 -0.3903103 -6.786252 6.639729
522 3 -0.1967602 -6.7756801 6.388391
523 3 -0.0155659 -6.7792831 6.2134948
524 3 0.1088257 -6.7944918 5.9676728
525 3 0.2985649 -6.8272453 5.7335129
526 3 0.4880676 -6.7667189 5.4944501
527 3 0.6261005 -6.827929 5.2721958
528 3 0.7526369 -6.8304029 5.034698
529 3 0.8318529 -6.894456 4.774035
530 3 0.9815322 -6.896382 4.5666871
531 3 1.067389 -6.968091 4.2714582
532 3 1.324522 -6.950459 4.0974188
533 3 1.517144 -6.9713068 3.904469
534 3 1.6748801 -6.9837752 3.712446
535 3 1.829163 -6.9924712 3.4402919
536 3 2.022501 -6.9184918 3.253711
537 3 2.2087481 -6.94065 3.1089079
538 3 2.35216 -6.9860722 2.7810471
539 3 2.524549 -6.9394642 2.5850771
540 3 2.674604 -6.9721422 2.3986061
541 3 2.8962122 -6.8990092 2.175982
542 3 3.024128 -6.8847462 1.930908
543 3 3.1481521 -6.9684458 1.641025
544 3 3.2706361 -6.9586692 1.424876
545 3 3.474895 -7.0341859 1.174553
546 3 3.6627951 -7.0263639 0.9978132
547 3 3.891525 -6.934403 0.8118067
548 3 4.0696392 -6.91046 0.6191835
549 3 4.233747 -6.893342 0.4241285
550 3 4.4338622 -6.887549 0.2301264
551 3 4.5576329 -6.9016428 -0.0268955
552 3 4.717001 -6.883687 -0.1929111
553 3 4.851759 -6.889977 -0.4614277
554 3 4.9995122 -6.976102 -0.6599293
555 3 5.25245 -6.9927612 -0.8824788
556 3 5.3545709 -7.0390859 -1.159048
557 3 5.536983 -7.0130968 -1.3577861
558 3 5.6369872 -7.0315809 -1.596632
559 3 5.7947388 -7.0090299 -1.819479
560 3 5.9414272 -7.060739 -1.973505
561 3 6.1495352 -7.0482001 -2.2526679
562 3 6.29951 -7.0414419 -2.415304
563 3 6.3836651 -7.0647378 -2.7223761
564 3 6.621295 -7.0343518 -2.9361292
565 3 6.8230181 -7.0555201 -3.1224461
566 3 6.928022 -7.0700221 -3.3039341
567 3 7.0933061 -7.063849 -3.534452
568 3 7.240067 -7.0841069 -3.8039949
569 3 7.4374953 -7.0816951 -4.0433831
570 3 7.5533962 -7.148469 -4.2321072
571 3 7.705873 -7.0874591 -4.4096618
572 3 7.898993 -7.121253 -4.6826148
573 3 8.0469904 -7.1694079 -4.9313178
574 3 8.2440205 -7.2062202 -5.126852
575 3 8.3848543 -7.2145362 -5.3468108
576 3 8.448905 -7.2336402 -5.5332361
577 3 -2.614656 -6.2232781 10.3433399
578 3 -2.5118661 -6.2347942 10.12395
579 3 -2.358695 -6.321362 9.8859348
580 3 -2.2434571 -6.2975898 9.6844406
581 3 -2.1021149 -6.3330131 9.4262581
582 3 -1.910582 -6.3081269 9.264205
583 3 -1.793433 -6.3325219 8.9889852
584 3 -1.619869 -6.3533821 8.7164421
585 3 -1.553357 -6.3933621 8.4794865
586 3 -1.4006211 -6.3868499 8.2994166
587 3 -1.224058 -6.4491482 7.961445
588 3 -1.185933 -6.4969402 7.7165742
589 3 -1.1013809 -6.5331469 7.4912319
590 3 -0.9109956 -6.517035 7.2620449
591 3 -0.816206 -6.5411539 7.0308552
592 3 -0.6558676 -6.5776382 6.74506
593 3 -0.4823112 -6.5904188 6.501812
594 3 -0.3057194 -6.5731921 6.289248
595 3 -0.1452503 -6.5063648 6.1202412
596 3 0.0261068 -6.572568 5.887096
597 3 0.1465235 -6.551045 5.6437888
598 3 0.3650312 -6.5760579 5.4061179
599 3 0.4998817 -6.5471578 5.155705
600 3 0.6832314 -6.5520182 4.9430352
601 3 0.7920628 -6.5985942 4.6733699
602 3 0.870556 -6.6966052 4.4764881
603 3 1.064515 -6.7548232 4.1886172
604 3 1.225098 -6.685699 4.0334058
605 3 1.39274 -6.7147298 3.8112011
606 3 1.62936 -6.6602431 3.633972
607 3 1.8037941 -6.664939 3.4761551
608 3 1.9700022 -6.6796289 3.260942
609 3 2.1298311 -6.6840301 2.992008
610 3 2.2683301 -6.7420283 2.760792
611 3 2.3573101 -6.7633848 2.5234051
612 3 2.535789 -6.7000342 2.3281231
613 3 2.720769 -6.7048621 2.1151991
614 3 2.893112 -6.7316242 1.806953
615 3 3.0555611 -6.7676192 1.569647
616 3 3.198647 -6.7695112 1.341038
617 3 3.2904511 -6.8241511 1.091773
618 3 3.5002649 -6.7380042 0.8167925
619 3 3.7366359 -6.689755 0.7436877
620 3 3.978622 -6.6817289 0.5699644
621 3 4.0535698 -6.7742129 0.2514944
622 3 4.2186322 -6.7306662 0.07337
623 3 4.4079242 -6.6723089 -0.051508
624 3 4.5752101 -6.6562171 -0.3047695
625 3 4.6472612 -6.696733 -0.587965
626 3 4.9062262 -6.7675219 -0.7721424
627 3 5.0346422 -6.7887912 -1.007097
628 3 5.212728 -6.7448092 -1.220411
629 3 5.3359828 -6.7895499 -1.411886
630 3 5.5250778 -6.8214288 -1.690199
631 3 5.6241069 -6.93118 -1.967672
632 3 5.7868653 -6.8641902 -2.200727
633 3 5.9529958 -6.8562398 -2.3151491
634 3 6.0985718 -6.7976661 -2.534231
635 3 6.307694 -6.8271609 -2.7794211
636 3 6.4365978 -6.8718272 -2.977663
637 3 6.6497112 -6.82935 -3.242857
638 3 6.7739158 -6.894166 -3.4767671
639 3 6.940663 -6.9063458 -3.6326161
640 3 7.114182 -6.8899488 -3.8811022
641 3 7.3074799 -6.886624 -4.1276841
642 3 7.3531442 -6.9744392 -4.3595829
643 3 7.5663553 -6.9699178 -4.5915971
644 3 7.752564 -6.883162 -4.7964459
645 3 7.882803 -6.9363298 -5.0838451
646 3 8.0638437 -7.0545259 -5.2668128
647 3 8.1919184 -7.05444 -5.5035839
648 3 8.3432093 -7.0710502 -5.706553
649 3 -2.795039 -5.997253 10.1877804
650 3 -2.674057 -6.0627828 10.0133896
651 3 -2.5226259 -6.0105619 9.8092299
652 3 -2.346333 -6.0699682 9.5955992
653 3 -2.2169831 -6.0486889 9.358285
654 3 -2.023427 -6.0418811 9.1421261
655 3 -1.887727 -6.0900898 8.9217216
656 3 -1.752756 -6.1455321 8.6609345
657 3 -1.700223 -6.1771512 8.4298325
658 3 -1.561119 -6.2269468 8.1542969
659 3 -1.354568 -6.2078281 7.923296
660 3 -1.224944 -6.2304368 7.7051072
661 3 -1.216586 -6.2916699 7.426208
662 3 -1.034649 -6.2327032 7.1673551
663 3 -0.887497 -6.2922702 6.9454232
664 3 -0.7740879 -6.3100448 6.6840611
665 3 -0.6430016 -6.3530951 6.3873
666 3 -0.4591446 -6.3162151 6.215385
667 3 -0.2244587 -6.2803202 5.97538
668 3 -0.0287418 -6.2678781 5.8606392
669 3 0.0717554 -6.2885509 5.5974102
670 3 0.250124 -6.3006911 5.3586502
671 3 0.4331398 -6.276485 5.1090579
672 3 0.5309696 -6.3481398 4.878718
673 3 0.6372128 -6.3915448 4.6092038
674 3 0.8142776 -6.4407392 4.35776
675 3 0.8974858 -6.4553132 4.099875
676 3 1.124247 -6.4436078 3.977174
677 3 1.286634 -6.4424939 3.761631
678 3 1.523785 -6.4373861 3.555815
679 3 1.707897 -6.4219032 3.3370049
680 3 1.8262251 -6.4951911 3.1611819
681 3 2.0340891 -6.425335 2.953462
682 3 2.1728361 -6.4261132 2.745647
683 3 2.319233 -6.436625 2.486835
684 3 2.467134 -6.4429131 2.228611
685 3 2.5761171 -6.541883 1.969415
686 3 2.7660699 -6.49859 1.7489801
687 3 2.913727 -6.535419 1.486176
688 3 3.083977 -6.5669432 1.305962
689 3 3.2456889 -6.5333891 1.020787
690 3 3.4283979 -6.5453 0.813035
691 3 3.5715301 -6.518291 0.6146747
692 3 3.7418599 -6.532022 0.4282598
693 3 3.934393 -6.5174332 0.2137165
694 3 4.0460391 -6.5126848 -0.0068111
695 3 4.2571182 -6.4927049 -0.1945705
696 3 4.4351678 -6.4884329 -0.4655743
697 3 4.5596781 -6.530272 -0.7010784
698 3 4.6877952 -6.5263181 -0.9699306
699 3 4.872202 -6.5666929 -1.170309
700 3 5.1347742 -6.5381942 -1.353609
701 3 5.2686491 -6.549264 -1.5376801
702 3 5.4103699 -6.619195 -1.819067
703 3 5.4706221 -6.6568733 -2.048254
704 3 5.6493058 -6.6478238 -2.2455349
705 3 5.8083959 -6.650662 -2.4731851
706 3 5.896235 -6.6729398 -2.687376
707 3 6.137682 -6.6714831 -2.875895
708 3 6.3337579 -6.6741591 -3.125689
709 3 6.4269762 -6.7089129 -3.3193259
710 3 6.6423688 -6.6421209 -3.5511191
711 3 6.7781282 -6.672853 -3.7915631
712 3 6.9311682 -6.7156339 -4.0136008
713 3 7.0882478 -6.7063608 -4.286798
714 3 7.202682 -6.8076492 -4.448133
715 3 7.415937 -6.7588659 -4.6846099
716 3 7.5914579 -6.7532358 -4.922628
717 3 7.7971902 -6.7719932 -5.175592
718 3 7.9215432 -6.7667489 -5.3921299
719 3 8.062417 -6.7590952 -5.5812631
720 3 8.2425776 -6.7827692 -5.7860742
721 3 -2.936223 -5.7769389 10.0857401
722 3 -2.8007701 -5.8232522 9.8915072
723 3 -2.613245 -5.8067432 9.6782685
724 3 -2.4585271 -5.783607 9.4504328
725 3 -2.288254 -5.7480889 9.2696629
726 3 -2.1673081 -5.8171368 9.041111
727 3 -2.025619 -5.8468852 8.798214
728 3 -1.964675 -5.883556 8.586567
729 3 -1.820668 -5.923543 8.3127155
730 3 -1.6879781 -5.9133558 8.0611229
731 3 -1.525457 -5.957646 7.854517
732 3 -1.4347741 -6.013845 7.620718
733 3 -1.265706 -5.992537 7.324491
734 3 -1.102562 -6.0352659 7.1204701
735 3 -1.0343339 -6.081336 6.8464452
736 3 -0.9022646 -6.0775752 6.576879
737 3 -0.7427616 -6.0675998 6.3882561
738 3 -0.5610142 -6.0607748 6.167809
739 3 -0.3853559 -6.0510192 5.9413142
740 3 -0.1607647 -6.020546 5.7377949
741 3 -0.0731373 -6.0610628 5.498631
742 3 0.0968838 -6.1124868 5.2369251
743 3 0.2990227 -6.0990982 5.02249
744 3 0.458065 -6.0967999 4.8087311
745 3 0.5810289 -6.1706581 4.518023
746 3 0.7640629 -6.2054348 4.2991161
747 3 0.865221 -6.1717472 4.118567
748 3 0.9759998 -6.2304711 3.8376229
749 3 1.2155941 -6.168695 3.655886
750 3 1.4347691 -6.1965852 3.4675451
751 3 1.6523251 -6.1597118 3.250469
752 3 1.713184 -6.2053351 3.0057039
753 3 1.923682 -6.1935439 2.874944
754 3 2.1017089 -6.2037878 2.621692
755 3 2.1958261 -6.2535401 2.3419471
756 3 2.3461859 -6.2973738 2.1115
757 3 2.467813 -6.2767248 1.872421
758 3 2.685591 -6.3133469 1.6262061
759 3 2.7089789 -6.325243 1.404099
760 3 2.938171 -6.2750259 1.207891
761 3 3.1391411 -6.275456 1.024547
762 3 3.306916 -6.3151579 0.7170916
763 3 3.512775 -6.3031011 0.5368853
764 3 3.6356969 -6.286171 0.3606329
765 3 3.8198691 -6.2731242 0.149374
766 3 3.9370922 -6.3088322 -0.1271
767 3 4.1019921 -6.296165 -0.3324833
768 3 4.2887778 -6.3188548 -0.5613233
769 3 4.4010649 -6.3262048 -0.7982922
770 3 4.5902581 -6.3040452 -0.9897138
771 3 4.758997 -6.3076859 -1.292112
772 3 4.9891072 -6.275671 -1.425638
773 3 5.133955 -6.3357129 -1.661978
774 3 5.2908092 -6.3152819 -1.899031
775 3 5.3768878 -6.4165311 -2.163332
776 3 5.4847589 -6.3950582 -2.3988061
777 3 5.64397 -6.4244161 -2.6274891
778 3 5.7974129 -6.4564042 -2.8222029
779 3 5.9565192 -6.4198981 -3.032187
780 3 6.1700592 -6.5001102 -3.248091
781 3 6.321897 -6.4687672 -3.4878099
782 3 6.4909082 -6.388135 -3.6803839
783 3 6.6275411 -6.487319 -3.906126
784 3 6.7244849 -6.551908 -4.188993
785 3 6.857504 -6.5732341 -4.4220939
786 3 7.1652231 -6.5337882 -4.6514721
787 3 7.2988382 -6.5793829 -4.825758
788 3 7.4350839 -6.5870981 -5.0924549
789 3 7.5492821 -6.6140719 -5.2850671
790 3 7.725533 -6.5272908 -5.472723
791 3 7.9717178 -6.55232 -5.7057781
792 3 8.0963488 -6.582562 -5.9206138
793 3 -3.047569 -5.551971 10.0289898
794 3 -2.9073702 -5.5246258 9.7901297
795 3 -2.7763529 -5.5415879 9.6400595
796 3 -2.5794041 -5.5370369 9.362381
797 3 -2.419888 -5.5737839 9.1790209