ITEM: TIMESTEP
1
ITEM: NUMBER OF ATOMS
78044
ITEM: BOX BOUNDS pp pp pp
-14.5850001 14.5850001
-14.5850001 14.5850001
-14.5850001 14.5850001
ITEM: ATOMS id type x y z
1 3 -0.7918181 -9.2927952 -10.0356903
2 3 -0.6787792 -9.0791063 -9.9790564
3 3 -0.5047622 -9.0120611 -9.8602668
4 3 -0.2574658 -8.9107962 -9.7018748
5 3 0.0447974 -8.8072748 -9.5630036
6 3 0.1875391 -8.6056957 -9.4946394
7 3 0.4108682 -8.4473582 -9.4088755
8 3 0.5686722 -8.2143145 -9.3475199
9 3 0.7053804 -7.971953 -9.3230524
10 3 0.9192854 -7.8295489 -9.2199535
11 3 1.0932471 -7.6263061 -9.140645
12 3 1.266771 -7.4181619 -9.0284739
13 3 1.445287 -7.2846041 -8.9363414
14 3 1.582459 -7.0255351 -8.8667842
15 3 1.700678 -6.8201022 -8.7582197
16 3 1.9425 -6.6602531 -8.7603712
17 3 2.0733609 -6.389267 -8.7188978
18 3 2.337286 -6.2587819 -8.5973006
19 3 2.5510919 -6.070291 -8.4869213
20 3 2.7627671 -5.985777 -8.3780823
21 3 2.95294 -5.7530809 -8.3626213
22 3 3.1712101 -5.6253052 -8.2011776
23 3 3.431437 -5.5740752 -8.0292072
24 3 3.5874939 -5.4195109 -7.975266
25 3 3.9056822 -5.2713499 -7.881331
26 3 3.991521 -4.9994212 -7.8610922
27 3 4.1878491 -4.7914229 -7.7347751
28 3 4.3534751 -4.5326882 -7.7200971
29 3 4.4585171 -4.308805 -7.721294
30 3 4.6188898 -4.072248 -7.598454
31 3 4.8610182 -3.9488872 -7.5538001
32 3 5.0642238 -3.750484 -7.5530091
33 3 5.2709651 -3.5915411 -7.4680009
34 3 5.5010791 -3.400043 -7.3087292
35 3 5.684227 -3.29789 -7.1714821
36 3 5.918605 -3.1287041 -7.0268588
37 3 6.0626898 -2.920245 -7.0149059
38 3 6.296463 -2.742558 -6.8733268
39 3 6.413331 -2.5177691 -6.865334
40 3 6.7058501 -2.346169 -6.826788
41 3 6.906703 -2.155436 -6.7194438
42 3 7.0631971 -1.954185 -6.7080879
43 3 7.1883078 -1.731537 -6.5541859
44 3 7.3501659 -1.4355591 -6.467701
45 3 7.4619122 -1.215368 -6.4710331
46 3 7.6503382 -1.050936 -6.49333
47 3 7.8375039 -0.866291 -6.3761921
48 3 8.0457439 -0.6129284 -6.3327479
49 3 8.2637787 -0.5928783 -6.2024541
50 3 8.4554634 -0.3744125 -6.094522
51 3 8.6133938 -0.1686144 -6.015173
52 3 8.834877 0.0316811 -5.9854932
53 3 9.0194626 0.170002 -5.8282132
54 3 9.1737156 0.3846006 -5.75668
55 3 9.4384375 0.5463686 -5.6913638
56 3 9.5655689 0.7199373 -5.5759621
57 3 9.7496147 0.9057388 -5.4877892
58 3 9.9279424 1.202858 -5.4994931
59 3 10.1000099 1.389964 -5.3896141
60 3 10.1501303 1.6441781 -5.4772129
61 3 10.3532896 1.9018102 -5.491447
62 3 10.5181599 2.100193 -5.4385662
63 3 10.71871 2.338423 -5.3977471
64 3 10.9098502 2.5659921 -5.3431778
65 3 11.0330896 2.8196411 -5.3059459
66 3 11.2500401 2.920135 -5.224586
67 3 11.4531403 3.1616371 -5.1109848
68 3 11.6363602 3.3469889 -4.9941602
69 3 11.88338 3.4792021 -4.9314772
70 3 12.0738297 3.6105671 -4.794395
71 3 12.2645798 3.7833331 -4.8014722
72 3 12.40129 3.964952 -4.7260742
73 3 -0.9702716 -9.1562948 -9.9085952
74 3 -0.8334174 -8.9476472 -9.8227377
75 3 -0.6510597 -8.8363991 -9.7025919
76 3 -0.3761625 -8.8220539 -9.5596018
77 3 -0.138577 -8.6849814 -9.4382372
78 3 0.1126122 -8.6000128 -9.3081637
79 3 0.1971874 -8.3535576 -9.282197
80 3 0.411098 -8.1993008 -9.1661196
81 3 0.5652514 -7.9119082 -9.1457548
82 3 0.7930932 -7.806479 -9.0566988
83 3 0.9952474 -7.6491022 -8.8909388
84 3 1.184358 -7.4670048 -8.7990122
85 3 1.369627 -7.301805 -8.6939974
86 3 1.5284601 -7.066906 -8.6200457
87 3 1.656112 -6.7906342 -8.5390539
88 3 1.851274 -6.6475859 -8.510602
89 3 2.0179379 -6.428668 -8.4471798
90 3 2.1558991 -6.204865 -8.4026928
91 3 2.4281001 -6.0875301 -8.2869654
92 3 2.674177 -5.9397312 -8.1963387
93 3 2.8342831 -5.7162628 -8.1515322
94 3 3.0032339 -5.578414 -8.0297127
95 3 3.261354 -5.46103 -7.928472
96 3 3.48526 -5.3621988 -7.7923641
97 3 3.697079 -5.2093659 -7.690866
98 3 3.877282 -4.971624 -7.646205
99 3 4.0038581 -4.6274162 -7.6662779
100 3 4.161984 -4.459805 -7.5772939
101 3 4.3796821 -4.281414 -7.4852062
102 3 4.5338822 -4.0823159 -7.4186001
103 3 4.702303 -3.8081391 -7.4113088
104 3 4.968873 -3.680466 -7.3211632
105 3 5.1241989 -3.507833 -7.262075
106 3 5.333509 -3.368227 -7.1426988
107 3 5.5603161 -3.2479341 -6.998867
108 3 5.8217378 -3.102792 -6.881405
109 3 6.057126 -2.916326 -6.793972
110 3 6.1620498 -2.668011 -6.7077599
111 3 6.3941631 -2.512331 -6.6881662
112 3 6.5406719 -2.231359 -6.633802
113 3 6.7131062 -2.114923 -6.5084501
114 3 6.9005942 -1.893198 -6.4522381
115 3 7.0604658 -1.649035 -6.4005699
116 3 7.2408099 -1.464621 -6.3178749
117 3 7.4109759 -1.2573971 -6.2997441
118 3 7.5801893 -1.0014679 -6.2636199
119 3 7.7245078 -0.774148 -6.2098031
120 3 7.9960322 -0.6780224 -6.1048808
121 3 8.0857601 -0.4468794 -6.02916
122 3 8.2871952 -0.2369356 -5.9892522
123 3 8.454855 -0.0737495 -5.8995482
124 3 8.6516361 0.0987225 -5.8059349
125 3 8.8620358 0.2753487 -5.6718769
126 3 9.0495548 0.4805079 -5.560432
127 3 9.239912 0.6087704 -5.5030632
128 3 9.4324951 0.8139839 -5.393364
129 3 9.6320248 1.04038 -5.375721
130 3 9.75704 1.303035 -5.4129138
131 3 9.9278774 1.506231 -5.3269539
132 3 10.0465097 1.7290551 -5.2316132
133 3 10.2722702 1.962305 -5.2924628
134 3 10.3681297 2.2250819 -5.2587199
135 3 10.5687599 2.4293151 -5.240108
136 3 10.7673798 2.611898 -5.124855
137 3 10.9447204 2.7813239 -5.0236359
138 3 11.1269798 3.0330441 -5.003654
139 3 11.3199997 3.202769 -4.9180642
140 3 11.5894804 3.32286 -4.7926789
141 3 11.72649 3.4746621 -4.6829381
142 3 11.9227 3.7395649 -4.5930519
143 3 12.0452204 3.9658302 -4.6252442
144 3 12.1500101 4.0794511 -4.6759639
145 3 -1.155591 -8.9956466 -9.7262812
146 3 -0.9995266 -8.8036709 -9.6886111
147 3 -0.7722096 -8.7963982 -9.4989863
148 3 -0.5352416 -8.6912737 -9.3470392
149 3 -0.3585739 -8.5773869 -9.2689791
150 3 -0.1069608 -8.4975701 -9.122674
151 3 0.1020164 -8.2441177 -9.0541754
152 3 0.2555861 -8.0811901 -8.9662504
153 3 0.460463 -7.936522 -8.8837024
154 3 0.6612391 -7.754323 -8.7869673
155 3 0.7608032 -7.5653281 -8.6863795
156 3 0.999022 -7.3296938 -8.6488352
157 3 1.222631 -7.2111712 -8.5415831
158 3 1.378322 -7.0062299 -8.4160957
159 3 1.59157 -6.8202639 -8.3203087
160 3 1.7090841 -6.6059819 -8.3112717
161 3 1.929432 -6.336462 -8.2267656
162 3 2.084929 -6.1996651 -8.1819868
163 3 2.3014641 -5.9840708 -8.143733
164 3 2.4768181 -5.840755 -8.0284567
165 3 2.680357 -5.673985 -7.925758
166 3 2.855588 -5.4953108 -7.7983742
167 3 3.0826321 -5.435946 -7.6979471
168 3 3.284231 -5.2280588 -7.6364961
169 3 3.5052831 -5.040915 -7.5704179
170 3 3.672987 -4.8351412 -7.487011
171 3 3.888862 -4.621471 -7.3976112
172 3 4.0719519 -4.4339838 -7.3463001
173 3 4.217288 -4.2115731 -7.2969408
174 3 4.4140692 -3.9896532 -7.2522869
175 3 4.5770512 -3.831656 -7.1907892
176 3 4.7546129 -3.590204 -7.1495571
177 3 4.9845882 -3.4096949 -7.0410042
178 3 5.2093892 -3.2771859 -6.931479
179 3 5.4452329 -3.1161211 -6.8058872
180 3 5.6377921 -2.9897882 -6.6743303
181 3 5.8144932 -2.8391672 -6.5438352
182 3 6.0353332 -2.669168 -6.4643569
183 3 6.1798401 -2.4157431 -6.4183269
184 3 6.3461461 -2.20647 -6.3788719
185 3 6.5811172 -2.055887 -6.2640252
186 3 6.734787 -1.905313 -6.2262879
187 3 6.9132628 -1.654568 -6.1840038
188 3 7.100317 -1.406559 -6.1122818
189 3 7.2562652 -1.20697 -6.0729222
190 3 7.4447222 -1.025358 -5.997107
191 3 7.6658492 -0.8079786 -5.9062372
192 3 7.7733011 -0.5460215 -5.9454608
193 3 7.9408122 -0.392766 -5.867992
194 3 8.1266041 -0.1846609 -5.7465821
195 3 8.2973251 0.0131779 -5.72121
196 3 8.4578057 0.2258644 -5.6329961
197 3 8.6622982 0.3926449 -5.5035711
198 3 8.872118 0.5475464 -5.3930068
199 3 9.0710697 0.706955 -5.3439078
200 3 9.2483025 0.9332142 -5.2083702
201 3 9.4043064 1.142944 -5.2054749
202 3 9.5524159 1.360875 -5.195612
203 3 9.7411251 1.627924 -5.2019458
204 3 9.8964578 1.825714 -5.0712781
205 3 10.0406504 2.0535009 -5.059669
206 3 10.2614699 2.199949 -5.0688129
207 3 10.3574104 2.475307 -5.048357
208 3 10.5825997 2.639761 -4.9774152
209 3 10.78086 2.836622 -4.826572
210 3 11.0253096 3.0305619 -4.731926
211 3 11.2180004 3.1572321 -4.640163
212 3 11.3998003 3.394681 -4.6009641
213 3 11.5898199 3.572506 -4.4129748
214 3 11.7522898 3.7828851 -4.4437542
215 3 11.8775998 3.9478382 -4.3608651
216 3 12.0116301 4.1592059 -4.3592639
217 3 -1.373109 -8.904892 -9.5318098
218 3 -1.187776 -8.8294897 -9.4502154
219 3 -0.9499098 -8.7318936 -9.3140497
220 3 -0.69618 -8.6239615 -9.1305189
221 3 -0.4846625 -8.5697136 -9.0005445
222 3 -0.2954426 -8.4393416 -8.8659964
223 3 -0.1091509 -8.2320662 -8.8250208
224 3 0.1145682 -8.1059055 -8.7405558
225 3 0.3038292 -7.8718352 -8.6506911
226 3 0.5038691 -7.7486391 -8.5111494
227 3 0.6828122 -7.5052471 -8.4719143
228 3 0.8993064 -7.3358688 -8.4199438
229 3 1.068526 -7.1308322 -8.2899218
230 3 1.249195 -6.9183822 -8.2179318
231 3 1.3337621 -6.7699743 -8.1683455
232 3 1.579912 -6.5245118 -8.0648165
233 3 1.696139 -6.311645 -8.0524635
234 3 1.929669 -6.156394 -7.9553
235 3 2.1263199 -5.9271222 -7.8754712
236 3 2.303179 -5.7610979 -7.793622
237 3 2.4929099 -5.5897498 -7.7133689
238 3 2.783659 -5.4824281 -7.552733
239 3 2.9438642 -5.3745532 -7.447383
240 3 3.185292 -5.1547499 -7.3906632
241 3 3.3417239 -4.904572 -7.3683858
242 3 3.535223 -4.696383 -7.3008461
243 3 3.766836 -4.5796938 -7.1711011
244 3 3.9536432 -4.369122 -7.127934
245 3 4.1156421 -4.13345 -7.0693722
246 3 4.27947 -3.927536 -7.076714
247 3 4.4632831 -3.7256639 -6.921608
248 3 4.6201701 -3.4920969 -6.930418
249 3 4.8329058 -3.3455551 -6.8384738
250 3 5.0168238 -3.253577 -6.7016449
251 3 5.225421 -3.032124 -6.6014371
252 3 5.4692531 -2.8570882 -6.5186229
253 3 5.6141582 -2.771313 -6.3366642
254 3 5.853768 -2.502677 -6.3127251
255 3 6.0645251 -2.4303751 -6.187057
256 3 6.240963 -2.228395 -6.1308522
257 3 6.4459329 -2.0437379 -6.0430598
258 3 6.5645442 -1.7448221 -6.0125661
259 3 6.7960491 -1.641745 -5.90522
260 3 6.951457 -1.410015 -5.8904462
261 3 7.1385179 -1.171253 -5.801208
262 3 7.2941718 -0.943184 -5.7610359
263 3 7.485754 -0.7319813 -5.6785131
264 3 7.634605 -0.5089397 -5.6455441
265 3 7.779769 -0.2589521 -5.6401649
266 3 7.9216782 -0.052125 -5.6245632
267 3 8.1009522 0.1490755 -5.5485311
268 3 8.217516 0.3299761 -5.4408379
269 3 8.4619942 0.5010777 -5.3716412
270 3 8.7057972 0.6434345 -5.2173791
271 3 8.8673992 0.9048358 -5.1818619
272 3 9.0509148 1.019082 -5.12812
273 3 9.2138882 1.22991 -5.0529671
274 3 9.359375 1.4316731 -5.0067248
275 3 9.5643902 1.718029 -4.9907532
276 3 9.6880379 1.958416 -4.9170418
277 3 9.8701688 2.129025 -4.8446012
278 3 10.0182304 2.3924401 -4.790678
279 3 10.2467203 2.470002 -4.7466679
280 3 10.4301901 2.728673 -4.7246208
281 3 10.5743199 2.9456452 -4.6215859
282 3 10.8546496 3.0310841 -4.4703331
283 3 11.0889998 3.1909311 -4.4089408
284 3 11.2361298 3.3949759 -4.2969761
285 3 11.3841896 3.5797971 -4.2540679
286 3 11.67904 3.7827401 -4.1286702
287 3 11.7324801 4.0423489 -4.1537628
288 3 11.91432 4.2220059 -4.104002
289 3 -1.573611 -8.8234244 -9.3612719
290 3 -1.343032 -8.8082257 -9.1865549
291 3 -1.118127 -8.716178 -9.0745916
292 3 -0.9005036 -8.5882597 -8.9216814
293 3 -0.6571594 -8.4660387 -8.8366118
294 3 -0.4741359 -8.4025774 -8.6505156
295 3 -0.2150578 -8.1758432 -8.5850077
296 3 -0.0414066 -8.0357256 -8.4732981
297 3 0.1476331 -7.8045421 -8.4562969
298 3 0.3410072 -7.6461692 -8.3677769
299 3 0.5711651 -7.4489742 -8.2613154
300 3 0.7669683 -7.2672892 -8.183528
301 3 0.8793136 -7.0553551 -8.153203
302 3 1.047498 -6.857102 -8.0224876
303 3 1.156286 -6.6208282 -8.0143347
304 3 1.3857141 -6.4579621 -7.893651
305 3 1.561284 -6.2307482 -7.8592148
306 3 1.773135 -6.0465608 -7.7352262
307 3 1.957612 -5.936843 -7.6627941
308 3 2.1608739 -5.7399912 -7.5495868
309 3 2.4222431 -5.5800591 -7.4115391
310 3 2.627306 -5.4343829 -7.2975001
311 3 2.7494459 -5.263885 -7.2671619
312 3 2.989925 -5.0977898 -7.2055869
313 3 3.2406709 -4.9121618 -7.0942631
314 3 3.396734 -4.729559 -7.0377898
315 3 3.5734861 -4.543397 -6.948885
316 3 3.7651861 -4.3084769 -6.9392028
317 3 3.9912952 -4.0916281 -6.8265338
318 3 4.1384168 -3.9104 -6.7971039
319 3 4.297678 -3.6706381 -6.7260971
320 3 4.4765702 -3.50911 -6.6452098
321 3 4.6727901 -3.353226 -6.5771451
322 3 4.8779822 -3.180788 -6.4897919
323 3 5.0333362 -3.0122089 -6.3780589
324 3 5.2532582 -2.8190329 -6.2774029
325 3 5.4848199 -2.645818 -6.2402902
326 3 5.6249671 -2.4485421 -6.0668979
327 3 5.8659682 -2.3174629 -5.98695
328 3 6.0567341 -2.1608291 -5.889351
329 3 6.2250552 -1.908708 -5.8750502
330 3 6.4280372 -1.709625 -5.7298661
331 3 6.576613 -1.47398 -5.6854592
332 3 6.841434 -1.291004 -5.6069851
333 3 6.9801168 -1.050344 -5.5675092
334 3 7.1404381 -0.8837138 -5.5425129
335 3 7.3301158 -0.7041197 -5.467566
336 3 7.4624372 -0.4251022 -5.4295101
337 3 7.5873533 -0.2017899 -5.429729
338 3 7.771853 0.0452766 -5.3572459
339 3 8.0047989 0.1973801 -5.2913952
340 3 8.1068592 0.4211769 -5.3056531
341 3 8.245287 0.7033405 -5.2526469
342 3 8.4485111 0.7848082 -5.114717
343 3 8.6275387 1.000757 -5.0855479
344 3 8.851595 1.207554 -5.016758
345 3 8.9811498 1.3483011 -4.921967
346 3 9.1976605 1.5482921 -4.7879849
347 3 9.3843145 1.7192921 -4.701931
348 3 9.550705 1.937109 -4.6641031
349 3 9.7075024 2.2299981 -4.634727
350 3 9.8756962 2.4580851 -4.6283188
351 3 10.1211901 2.5701151 -4.543118
352 3 10.2979603 2.7629819 -4.5149799
353 3 10.4695597 2.980844 -4.4150958
354 3 10.7413302 3.132004 -4.270731
355 3 10.9187498 3.266876 -4.198391
356 3 11.0592499 3.4554 -4.051867
357 3 11.2340202 3.6960881 -4.01582
358 3 11.4303303 3.8402232 -3.911339
359 3 11.5550299 4.1010799 -3.9407772
360 3 11.7281199 4.3103728 -3.8822292
361 3 -1.7110781 -8.8212719 -9.0131292
362 3 -1.476467 -8.6963949 -8.9860468
363 3 -1.319479 -8.6035815 -8.7951403
364 3 -1.07311 -8.511878 -8.6769991
365 3 -0.774158 -8.4341727 -8.5408697
366 3 -0.6334434 -8.3386984 -8.4359656
367 3 -0.4062648 -8.134078 -8.3600588
368 3 -0.2294369 -7.930017 -8.3190384
369 3 -0.0088019 -7.7145262 -8.2481308
370 3 0.2377672 -7.5778952 -8.1258965
371 3 0.4209723 -7.4269638 -8.008338
372 3 0.5855623 -7.202889 -7.9019342
373 3 0.7069474 -7.0246081 -7.8656492
374 3 0.8831882 -6.783278 -7.8408208
375 3 1.043471 -6.5814209 -7.765348
376 3 1.272939 -6.4397149 -7.6152439
377 3 1.445959 -6.2329822 -7.5871358
378 3 1.64388 -6.0123868 -7.543696
379 3 1.879867 -5.899929 -7.384047
380 3 2.07337 -5.7626138 -7.3146339
381 3 2.2529271 -5.5219312 -7.2301841
382 3 2.463748 -5.3953948 -7.112
383 3 2.658973 -5.2024288 -7.0089679
384 3 2.8825892 -5.0862489 -6.951117
385 3 3.1035869 -4.928558 -6.876297
386 3 3.2260339 -4.6885181 -6.798265
387 3 3.435067 -4.4495988 -6.747581
388 3 3.648407 -4.2753139 -6.6750303
389 3 3.8114319 -4.0796218 -6.6478729
390 3 3.983022 -3.847137 -6.5319982
391 3 4.136148 -3.637502 -6.4431839
392 3 4.323484 -3.492908 -6.40937
393 3 4.5810571 -3.3036189 -6.3138828
394 3 4.7371969 -3.1233251 -6.2410278
395 3 4.887866 -2.9301392 -6.1556802
396 3 5.0748081 -2.7271161 -6.0878768
397 3 5.308619 -2.576725 -6.0080681
398 3 5.4875369 -2.363832 -5.920948
399 3 5.707408 -2.197875 -5.840664
400 3 5.8452812 -2.023556 -5.7056732
401 3 6.061235 -1.884394 -5.6617971
402 3 6.2913432 -1.628026 -5.5225301
403 3 6.481452 -1.5042581 -5.434669
404 3 6.6669612 -1.256147 -5.4227143
405 3 6.808486 -1.03142 -5.3658352
406 3 6.9715462 -0.8594094 -5.3020568
407 3 7.1297998 -0.5890493 -5.257977
408 3 7.282867 -0.3748217 -5.2444062
409 3 7.4410301 -0.0790348 -5.241869
410 3 7.6163821 0.1059465 -5.1960301
411 3 7.7736058 0.3420382 -5.1441922
412 3 7.8759872 0.5856247 -5.1655812
413 3 8.0785713 0.7572289 -5.0580058
414 3 8.2564221 0.9526424 -5.0176511
415 3 8.4423466 1.132486 -4.8943748
416 3 8.6067391 1.3662471 -4.8632512
417 3 8.8258629 1.450356 -4.7227841
418 3 9.029459 1.667112 -4.6683059
419 3 9.2237396 1.83716 -4.5846858
420 3 9.3502751 2.031167 -4.4681592
421 3 9.5137921 2.3324871 -4.4685002
422 3 9.7212792 2.533643 -4.4529362
423 3 9.8295822 2.7547891 -4.3702741
424 3 10.1392002 2.891631 -4.2961102
425 3 10.3246899 3.063581 -4.218245
426 3 10.5132399 3.1864829 -4.112823
427 3 10.6977301 3.343756 -4.0008812
428 3 10.9022598 3.4900711 -3.896585
429 3 11.0560999 3.7500761 -3.7797661
430 3 11.2568598 3.9067272 -3.7071271
431 3 11.4396801 4.1747842 -3.6937411
432 3 11.5195599 4.3866601 -3.6872161
433 3 -1.845269 -8.8113947 -8.806346
434 3 -1.671332 -8.7386647 -8.6915922
435 3 -1.371133 -8.6074171 -8.5920706
436 3 -1.258041 -8.4682751 -8.4585696
437 3 -0.9565864 -8.358531 -8.3234224
438 3 -0.7693295 -8.2341185 -8.1848049
439 3 -0.547895 -8.0660915 -8.1652718
440 3 -0.2875538 -7.8590652 -8.114542
441 3 -0.1114826 -7.7286859 -7.961544
442 3 0.0770254 -7.5159741 -7.901082
443 3 0.242774 -7.3350992 -7.7778468
444 3 0.4229693 -7.1607199 -7.7079439
445 3 0.5876212 -6.9151468 -7.6092181
446 3 0.7177325 -6.7293492 -7.616848
447 3 0.9359466 -6.5258622 -7.5602551
448 3 1.120657 -6.361609 -7.4564572
449 3 1.370754 -6.2029572 -7.335135
450 3 1.5438301 -6.0477228 -7.2777839
451 3 1.7022361 -5.8235412 -7.2263851
452 3 1.9440892 -5.7205758 -7.0670781
453 3 2.143528 -5.5510631 -6.9382758
454 3 2.317265 -5.3287382 -6.8268829
455 3 2.553134 -5.1626921 -6.7891922
456 3 2.7199931 -4.96246 -6.74263
457 3 2.904026 -4.793201 -6.6474228
458 3 3.1683459 -4.6174078 -6.5627232
459 3 3.31405 -4.3563171 -6.5057559
460 3 3.4427281 -4.1780648 -6.4437289
461 3 3.648578 -4.0274391 -6.377913
462 3 3.87848 -3.846838 -6.2580738
463 3 4.096189 -3.7214201 -6.1898441
464 3 4.2682262 -3.513232 -6.126554
465 3 4.4600492 -3.31811 -6.046886
466 3 4.634336 -3.116642 -5.951139
467 3 4.7973428 -2.9349612 -5.8992162
468 3 4.921741 -2.6597109 -5.872543
469 3 5.227478 -2.478441 -5.7317891
470 3 5.3579159 -2.3080011 -5.652287
471 3 5.5175429 -2.1297729 -5.6425929
472 3 5.6713372 -1.940773 -5.5859761
473 3 5.971685 -1.783667 -5.41011
474 3 6.118228 -1.533628 -5.3722382
475 3 6.3406811 -1.368044 -5.2839508
476 3 6.5314341 -1.191766 -5.159821
477 3 6.6698661 -0.9063044 -5.1600461
478 3 6.805151 -0.7691231 -5.082005
479 3 6.957098 -0.4852352 -5.0812192
480 3 7.1440892 -0.2690229 -5.092701
481 3 7.2957192 -0.0077343 -5.037128
482 3 7.4379368 0.2669983 -5.016695
483 3 7.5562029 0.4420815 -5.0032482
484 3 7.7291241 0.7008066 -4.9983602
485 3 7.857134 0.8995248 -4.8950248
486 3 8.0649452 1.07892 -4.8559608
487 3 8.2195511 1.339241 -4.8358751
488 3 8.4404049 1.4831391 -4.729868
489 3 8.6226731 1.610121 -4.615355
490 3 8.888731 1.819947 -4.4586449
491 3 9.0313215 1.986235 -4.4075089
492 3 9.2340346 2.1526699 -4.2866941
493 3 9.3428688 2.4051299 -4.2653051
494 3 9.5054531 2.654994 -4.2333932
495 3 9.7451306 2.7958851 -4.124218
496 3 9.9975166 2.9645592 -4.068058
497 3 10.1640301 3.0719221 -3.964071
498 3 10.3601799 3.2860739 -3.892269
499 3 10.55367 3.411777 -3.737659
500 3 10.8037997 3.5717781 -3.6740949
501 3 10.9454002 3.7985881 -3.499321
502 3 11.0871296 4.0208721 -3.4931531
503 3 11.2463904 4.2892089 -3.5079479
504 3 11.4242697 4.4644532 -3.432806
505 3 -1.996112 -8.7625208 -8.5492602
506 3 -1.787307 -8.6596337 -8.4295855
507 3 -1.590599 -8.5557022 -8.3419495
508 3 -1.3899551 -8.4041863 -8.2316799
509 3 -1.15525 -8.3244715 -8.0644264
510 3 -0.968865 -8.0811939 -8.0471125
511 3 -0.6912532 -7.955555 -7.920354
512 3 -0.4717383 -7.7381702 -7.876617
513 3 -0.2754807 -7.582726 -7.7747979
514 3 -0.1154647 -7.477583 -7.6385918
515 3 0.1053824 -7.3470011 -7.5320659
516 3 0.2999454 -7.1612458 -7.4707189
517 3 0.4814072 -6.951501 -7.3749161
518 3 0.6500193 -6.6675382 -7.3781209
519 3 0.7736956 -6.4815321 -7.2485132
520 3 0.9874206 -6.306066 -7.1807151
521 3 1.166459 -6.121933 -7.20015
522 3 1.394239 -5.9433908 -7.036747
523 3 1.614326 -5.807509 -6.931862
524 3 1.812057 -5.6507049 -6.8574748
525 3 2.035717 -5.508225 -6.733532
526 3 2.189368 -5.3082719 -6.6471181
527 3 2.4058011 -5.1334152 -6.5919862
528 3 2.600523 -4.912963 -6.4881969
529 3 2.756917 -4.7204771 -6.4512692
530 3 2.966585 -4.5357828 -6.3219948
531 3 3.1395049 -4.3083191 -6.303576
532 3 3.2904899 -4.0850682 -6.2781119
533 3 3.5356879 -3.987241 -6.1524301
534 3 3.6998949 -3.7679901 -6.0810871
535 3 3.961405 -3.6788581 -5.9736652
536 3 4.1143031 -3.4843891 -5.918819
537 3 4.3280602 -3.2384341 -5.806314
538 3 4.508987 -3.078696 -5.7504349
539 3 4.670981 -2.879406 -5.710155
540 3 4.7920223 -2.6167281 -5.5743451
541 3 4.987915 -2.466491 -5.4919472
542 3 5.2091098 -2.23382 -5.510078
543 3 5.370368 -2.0262511 -5.393805
544 3 5.546762 -1.861735 -5.3551669
545 3 5.759708 -1.668147 -5.2383499
546 3 5.9014602 -1.4603191 -5.1823349
547 3 6.1190119 -1.306311 -5.0823441
548 3 6.305965 -1.091809 -5.0269809
549 3 6.533226 -0.8186216 -4.9421158
550 3 6.5887161 -0.5705805 -4.9776612
551 3 6.811059 -0.3918171 -4.964449
552 3 6.979363 -0.1892328 -4.8961072
553 3 7.0994158 0.080574 -4.8708458
554 3 7.2305951 0.3189049 -4.876534
555 3 7.3891468 0.5656385 -4.8650398
556 3 7.5422192 0.7852221 -4.804523
557 3 7.6683798 1.074587 -4.8050189
558 3 7.899086 1.235107 -4.7446671
559 3 8.0660667 1.433972 -4.6359649
560 3 8.29319 1.592422 -4.5586009
561 3 8.4695606 1.730073 -4.409348
562 3 8.663435 1.935207 -4.3103638
563 3 8.8891544 2.0766821 -4.2144809
564 3 9.0408173 2.326622 -4.1841388
565 3 9.2254143 2.495745 -4.1202321
566 3 9.4348984 2.718885 -4.0352478
567 3 9.5940266 2.901737 -3.982964
568 3 9.7687531 3.1036241 -3.902325
569 3 9.9962292 3.277482 -3.7845121
570 3 10.15728 3.408854 -3.723841
571 3 10.3554201 3.588289 -3.5623091
572 3 10.5916596 3.6767001 -3.4801061
573 3 10.7710104 3.903421 -3.4149821
574 3 10.9414798 4.100307 -3.306355
575 3 11.1824999 4.2774792 -3.2131121
576 3 11.2821198 4.4917531 -3.1075759
577 3 -2.064563 -8.7837935 -8.2411604
578 3 -1.943913 -8.5718327 -8.2553616
579 3 -1.729036 -8.5037184 -8.077384
580 3 -1.5113 -8.332161 -8.0359278
581 3 -1.272477 -8.174119 -7.9560318
582 3 -1.062245 -8.0389032 -7.85321
583 3 -0.8890034 -7.874897 -7.7192049
584 3 -0.6590877 -7.7460971 -7.6748829
585 3 -0.5167804 -7.4891329 -7.547112
586 3 -0.3118968 -7.3971748 -7.4267521
587 3 -0.0560308 -7.2199578 -7.3421259
588 3 0.1501174 -7.070209 -7.23172
589 3 0.3254533 -6.8850432 -7.1397562
590 3 0.5493073 -6.6531759 -7.092453
591 3 0.716444 -6.4477849 -7.0106411
592 3 0.8537394 -6.1730599 -7.015533
593 3 1.037196 -6.0006609 -6.931644
594 3 1.229349 -5.866408 -6.7441221
595 3 1.4338321 -5.6858731 -6.6901613
596 3 1.666291 -5.6189652 -6.5769882
597 3 1.8998442 -5.4700799 -6.4931431
598 3 2.0792241 -5.227911 -6.4172859
599 3 2.2339389 -5.0465069 -6.3149638
600 3 2.378628 -4.819027 -6.2914009
601 3 2.5971561 -4.6557112 -6.2160382
602 3 2.7948971 -4.4495759 -6.1544552
603 3 2.95819 -4.2673221 -6.0536499
604 3 3.1570959 -4.0513549 -6.0182228
605 3 3.3272569 -3.916123 -5.9131112
606 3 3.538481 -3.6845939 -5.8342209
607 3 3.7443321 -3.5896991 -5.730537
608 3 3.987243 -3.3960891 -5.6938401
609 3 4.1459999 -3.1667881 -5.6171971
610 3 4.3035989 -2.98277 -5.5285449
611 3 4.4971862 -2.7939031 -5.4204059
612 3 4.660326 -2.595567 -5.3067041
613 3 4.885377 -2.3861139 -5.344276
614 3 5.0677681 -2.1301551 -5.279057
615 3 5.1960168 -1.917006 -5.2017288
616 3 5.3914981 -1.7605571 -5.1722531
617 3 5.5895858 -1.5583301 -5.094883
618 3 5.7951131 -1.384542 -4.9559822
619 3 5.935935 -1.15122 -4.923946
620 3 6.1139431 -0.9583322 -4.8609028
621 3 6.249876 -0.7191277 -4.8493462
622 3 6.4320078 -0.4729385 -4.8678298
623 3 6.622931 -0.2480221 -4.7224999
624 3 6.7982402 -0.0035543 -4.692039
625 3 6.9592682 0.1582489 -4.6705551
626 3 7.122232 0.4141741 -4.6256452
627 3 7.2408748 0.6254253 -4.605732
628 3 7.2811732 0.9468432 -4.6527791
629 3 7.5281019 1.142048 -4.5682998
630 3 7.7076092 1.34627 -4.5491071
631 3 7.913722 1.534258 -4.4444938
632 3 8.087965 1.716417 -4.3692341
633 3 8.3303261 1.8714582 -4.3039889
634 3 8.4986096 2.0453601 -4.202066
635 3 8.6650353 2.301214 -4.0969958
636 3 8.8429814 2.418242 -4.0445328
637 3 9.0236645 2.656071 -3.9882432
638 3 9.2441082 2.8184359 -3.8193441
639 3 9.4024429 3.0193739 -3.8139379
640 3 9.6148701 3.1930101 -3.65416
641 3 9.8264752 3.43625 -3.6146131
642 3 10.0019197 3.522265 -3.485374
643 3 10.2349301 3.7095921 -3.4272349
644 3 10.3956003 3.9206122 -3.3223341
645 3 10.5983496 3.952141 -3.1733301
646 3 10.8245001 4.1519699 -3.0633509
647 3 10.9441404 4.3798432 -3.012291
648 3 11.1117001 4.5560298 -2.9561862
649 3 -2.2248771 -8.7682762 -8.0466719
650 3 -2.0677609 -8.5478335 -7.9527842
651 3 -1.802564 -8.4770994 -7.8540802
652 3 -1.635791 -8.2970848 -7.7567849
653 3 -1.449798 -8.1480398 -7.7080612
654 3 -1.259578 -7.9689598 -7.6172371
655 3 -1.053937 -7.7621451 -7.503428
656 3 -0.8635268 -7.6220761 -7.4457031
657 3 -0.6588817 -7.4928689 -7.2986989
658 3 -0.4303379 -7.3403139 -7.23842
659 3 -0.2064099 -7.1843548 -7.121047
660 3 0.0042033 -7.0467758 -6.993042
661 3 0.1949344 -6.8388272 -6.9897938
662 3 0.3949504 -6.6199122 -6.843822
663 3 0.5359912 -6.3922372 -6.8308621
664 3 0.7213893 -6.202548 -6.698483
665 3 0.8932462 -5.9521252 -6.6563611
666 3 1.093883 -5.8063011 -6.5007191
667 3 1.274598 -5.700718 -6.5088668
668 3 1.515989 -5.5199461 -6.352943
669 3 1.794405 -5.413168 -6.2415662
670 3 1.893548 -5.2004242 -6.2217832
671 3 2.0496089 -4.966279 -6.1167178
672 3 2.233222 -4.7356062 -6.0701351
673 3 2.4460461 -4.5717139 -6.0019321
674 3 2.5970581 -4.3342872 -5.972797
675 3 2.7608521 -4.1779089 -5.882174
676 3 2.984398 -4.007668 -5.7803059
677 3 3.2075861 -3.853464 -5.662251
678 3 3.4259861 -3.6595991 -5.6412912
679 3 3.6371291 -3.484294 -5.553596
680 3 3.7764361 -3.2540281 -5.5007019
681 3 4.0289459 -3.1318779 -5.3885188
682 3 4.1360402 -2.928961 -5.2832151
683 3 4.314353 -2.6736501 -5.2286072
684 3 4.5077462 -2.4822841 -5.1890721
685 3 4.7250128 -2.254751 -5.144424
686 3 4.9036952 -2.0314519 -5.0480609
687 3 5.0614562 -1.889711 -4.9927268
688 3 5.2165599 -1.719839 -4.9232712
689 3 5.407711 -1.4620511 -4.873962
690 3 5.5644951 -1.20954 -4.849472
691 3 5.7877212 -1.046533 -4.7396951
692 3 5.938964 -0.8272372 -4.7483182
693 3 6.1107969 -0.643239 -4.6314321
694 3 6.2467299 -0.3050365 -4.6743598
695 3 6.3866949 -0.0837517 -4.6146999
696 3 6.653286 0.0518837 -4.5512371
697 3 6.7622199 0.2377157 -4.4556289
698 3 6.9398618 0.4910669 -4.4118042
699 3 7.063417 0.7755852 -4.409267
700 3 7.2031512 1.013229 -4.4214549
701 3 7.3494978 1.242583 -4.3765049
702 3 7.5413718 1.4523031 -4.3273659
703 3 7.6979718 1.64594 -4.314487
704 3 8.001606 1.827641 -4.15659
705 3 8.1085167 1.958488 -4.0963802
706 3 8.2643089 2.202476 -4.0532608
707 3 8.4736061 2.349915 -3.8961202
708 3 8.685463 2.5741341 -3.890682
709 3 8.8425714 2.8088401 -3.773073
710 3 9.0631771 2.941032 -3.6779709
711 3 9.1732922 3.1687081 -3.594286
712 3 9.4298821 3.334949 -3.5449491
713 3 9.5919171 3.457758 -3.411598
714 3 9.7988453 3.6855731 -3.3820691
715 3 10.0399704 3.805496 -3.247097
716 3 10.17031 4.0088859 -3.1599121
717 3 10.4057303 4.1009598 -2.9779092
718 3 10.6591397 4.2443161 -2.873878
719 3 10.8709898 4.3845668 -2.7473259
720 3 10.99926 4.6378589 -2.7562349
721 3 -2.34389 -8.7367907 -7.760087
722 3 -2.1068981 -8.6497584 -7.7103563
723 3 -1.922893 -8.4983921 -7.5908361
724 3 -1.754728 -8.2657709 -7.5117402
725 3 -1.541481 -8.0839195 -7.4230461
726 3 -1.3925951 -7.943246 -7.3871842
727 3 -1.184562 -7.7088309 -7.326406
728 3 -0.9650836 -7.6179271 -7.205998
729 3 -0.7694144 -7.41255 -7.124712
730 3 -0.5626149 -7.2596922 -7.055676
731 3 -0.3555059 -7.1071348 -6.8735662
732 3 -0.1488686 -6.946252 -6.791286
733 3 0.001235 -6.7189121 -6.7437611
734 3 0.1524525 -6.4950638 -6.759573
735 3 0.4186954 -6.3346329 -6.6065521
736 3 0.5989733 -6.1814151 -6.460949
737 3 0.7625942 -5.9313222 -6.3618112
738 3 0.9825358 -5.8258028 -6.3351612
739 3 1.185447 -5.6837778 -6.191946
740 3 1.3623901 -5.4609442 -6.1373372
741 3 1.554516 -5.2888532 -6.0725732
742 3 1.746395 -5.1214781 -5.932981
743 3 1.906286 -4.883533 -5.9233818
744 3 2.116323 -4.6846771 -5.842854
745 3 2.255446 -4.4281979 -5.809731
746 3 2.4426971 -4.188313 -5.7893582
747 3 2.656076 -4.0164499 -5.669044
748 3 2.871994 -4.0088601 -5.5519099
749 3 3.0863969 -3.84947 -5.5036392
750 3 3.2735331 -3.6130221 -5.3339582
751 3 3.4353891 -3.381006 -5.314949
752 3 3.641767 -3.2056029 -5.267323
753 3 3.870355 -3.0796909 -5.1501961
754 3 4.0394549 -2.802938 -5.119534
755 3 4.2259469 -2.653111 -5.0206718
756 3 4.3544588 -2.3822279 -4.9376178
757 3 4.5213728 -2.2185691 -4.9198152
758 3 4.737617 -1.988978 -4.88579
759 3 4.8928472 -1.785761 -4.8131371
760 3 5.0176649 -1.5471261 -4.7850089
761 3 5.2247138 -1.303992 -4.6624809
762 3 5.3802438 -1.13625 -4.6919213
763 3 5.555665 -0.862669 -4.608675
764 3 5.7640319 -0.6894588 -4.5617519
765 3 5.8671032 -0.4561625 -4.5122319
766 3 6.0824242 -0.2454805 -4.420023
767 3 6.2301941 -0.0343151 -4.3853779
768 3 6.447423 0.166378 -4.330811
769 3 6.6573439 0.3369923 -4.2317329
770 3 6.8126669 0.5704174 -4.2260533
771 3 6.9282432 0.7825804 -4.2150211
772 3 6.999949 1.086679 -4.1870351
773 3 7.2122908 1.310455 -4.159195
774 3 7.4103332 1.5071301 -4.102737
775 3 7.552608 1.7801941 -4.1055031
776 3 7.7486811 1.951923 -3.975136
777 3 7.9471822 2.109277 -3.941824
778 3 8.0912781 2.3173201 -3.870739
779 3 8.2843647 2.5143149 -3.768631
780 3 8.4612046 2.6708811 -3.7093141
781 3 8.6717282 2.8370521 -3.5654471
782 3 8.8403778 3.016747 -3.5235861
783 3 9.0725594 3.1678629 -3.3674259
784 3 9.2253018 3.349931 -3.323885
785 3 9.3836632 3.5667491 -3.244057
786 3 9.6353989 3.7383299 -3.110806
787 3 9.8049889 3.934746 -3.0702479
788 3 10.0567999 4.0738111 -2.941069
789 3 10.2392197 4.20117 -2.801594
790 3 10.4608498 4.309443 -2.6748309
791 3 10.6460505 4.529676 -2.591873
792 3 10.8227301 4.7302718 -2.551996
793 3 -2.413435 -8.7840719 -7.5719619
794 3 -2.2475269 -8.634284 -7.453517
795 3 -2.0994849 -8.4372483 -7.420485
796 3 -1.928737 -8.2485838 -7.3263998
797 3 -1.698543 -8.1328478 -7.1850958
798 3 -1.592343 -7.8184862 -7.21385
799 3 -1.386258 -7.5987273 -7.1508079
800 3 -1.167531 -7.475051 -6.974586
801 3 -0.9390656 -7.3657308 -6.864502
802 3 -0.7337308 -7.1536741 -6.8446432
803 3 -0.5834928 -7.006125 -6.7798791
804 3 -0.3683076 -6.8194571 -6.6418042
805 3 -0.1218538 -6.6467638 -6.507586
806 3 0.0574985 -6.4366851 -6.4312439
807 3 0.1816721 -6.2415638 -6.410564
808 3 0.3767653 -6.0337629 -6.3117828
809 3 0.6228881 -5.9053622 -6.1722112
810 3 0.8081002 -5.7974811 -6.0632191
811 3 1.049337 -5.6287618 -5.9626142