ITEM: TIMESTEP
1
ITEM: NUMBER OF ATOMS
94434
ITEM: BOX BOUNDS pp pp pp
-15.5850001 15.5850001
-15.5850001 15.5850001
-15.5850001 15.5850001
ITEM: ATOMS id type x y z
1 3 -11.0311403 6.2609668 5.230649
2 3 -10.91282 6.2340541 4.9777452
3 3 -10.8667804 6.058969 4.817637
4 3 -10.84435 5.9398088 4.5293622
5 3 -10.83496 5.7635489 4.337637
6 3 -10.7583704 5.5916291 4.1142888
7 3 -10.6851397 5.3929548 3.910034
8 3 -10.6806603 5.2406502 3.6231489
9 3 -10.6124802 5.0672932 3.4262851
10 3 -10.5416804 4.860139 3.3059681
11 3 -10.4630003 4.8019862 3.007834
12 3 -10.4063597 4.6992979 2.698201
13 3 -10.3630104 4.635253 2.416348
14 3 -10.34974 4.5790801 2.158387
15 3 -10.2954197 4.3684268 1.952649
16 3 -10.2850599 4.2406378 1.741168
17 3 -10.2026396 4.0798769 1.515213
18 3 -10.1423597 3.9428462 1.2787171
19 3 -10.0841599 3.822526 1.0215679
20 3 -10.0074501 3.767947 0.7042542
21 3 -9.9101058 3.778852 0.4212732
22 3 -9.7998629 3.713857 0.2029314
23 3 -9.8551026 3.645736 -0.0188475
24 3 -9.7215147 3.5531361 -0.3408527
25 3 -9.6470099 3.4688289 -0.6184816
26 3 -9.5950461 3.442363 -0.8897124
27 3 -9.4777098 3.305619 -1.099769
28 3 -9.3357229 3.1027 -1.265717
29 3 -9.3612433 2.8342769 -1.458812
30 3 -9.3494158 2.682777 -1.729785
31 3 -9.2524347 2.5616641 -1.915149
32 3 -9.2762404 2.323303 -2.079653
33 3 -9.1610842 2.2527571 -2.3262949
34 3 -9.1326017 2.0659709 -2.551467
35 3 -9.1288557 1.975938 -2.8105641
36 3 -9.0331163 1.750642 -3.0108359
37 3 -8.9926252 1.536878 -3.2661469
38 3 -8.9056254 1.441989 -3.45135
39 3 -8.8763438 1.234563 -3.6173151
40 3 -8.9018888 1.126012 -3.874513
41 3 -8.8861514 0.9470322 -4.1059518
42 3 -8.8204623 0.7333702 -4.306149
43 3 -8.7915488 0.64656 -4.5422592
44 3 -8.7353373 0.4938481 -4.7993942
45 3 -8.7110262 0.2787612 -4.9833918
46 3 -8.5839319 0.1044534 -5.1851592
47 3 -8.5787535 -0.0755069 -5.3935089
48 3 -8.5495024 -0.2174785 -5.6843839
49 3 -8.5349341 -0.388602 -5.8789192
50 3 -8.4813051 -0.5690449 -6.056417
51 3 -8.4261236 -0.8360336 -6.2461209
52 3 -8.4686938 -1.022023 -6.3837819
53 3 -8.3572655 -1.249289 -6.5475211
54 3 -8.3939562 -1.3897931 -6.74999
55 3 -8.3282442 -1.572382 -7.0424008
56 3 -8.2688246 -1.828185 -7.1717582
57 3 -8.2128878 -2.056885 -7.3051272
58 3 -8.1883993 -2.157723 -7.5677352
59 3 -8.1701136 -2.28914 -7.8373542
60 3 -8.114234 -2.5277171 -8.037221
61 3 -8.0715456 -2.7168241 -8.227479
62 3 -8.0468969 -2.9651862 -8.4196368
63 3 -8.0795183 -3.2245231 -8.5926562
64 3 -8.0319166 -3.4263861 -8.7594118
65 3 -7.9813428 -3.604512 -8.9256564
66 3 -7.9317708 -3.852829 -9.0453424
67 3 -7.798841 -4.1100159 -9.1854982
68 3 -7.8479782 -4.2112808 -9.4371815
69 3 -7.7960482 -4.2505031 -9.7071848
70 3 -7.8438978 -4.2683401 -9.987836
71 3 -7.7330199 -4.418602 -10.2240496
72 3 -7.6930509 -4.4590788 -10.4780903
73 3 -10.7873497 6.353559 5.1673722
74 3 -10.7060499 6.2983642 4.9551792
75 3 -10.6416102 6.1946011 4.7135163
76 3 -10.6130505 5.9334202 4.5881429
77 3 -10.5433998 5.7317772 4.4252501
78 3 -10.5492802 5.5358019 4.181912
79 3 -10.50315 5.4217582 3.915356
80 3 -10.4026699 5.2123962 3.737463
81 3 -10.3536301 5.1530299 3.4775501
82 3 -10.3123798 5.0132351 3.233973
83 3 -10.2692604 4.90792 3.004432
84 3 -10.2103901 4.6744628 2.7867461
85 3 -10.1515198 4.6730271 2.472811
86 3 -10.0273895 4.5305929 2.2665501
87 3 -10.0394297 4.4733162 2.002161
88 3 -9.972478 4.3570609 1.764557
89 3 -9.9777308 4.1810031 1.5410171
90 3 -9.8938914 3.946044 1.355668
91 3 -9.8291483 3.871688 1.036429
92 3 -9.7239962 3.878015 0.7262697
93 3 -9.7359133 3.7587099 0.5298872
94 3 -9.6151095 3.687614 0.2451696
95 3 -9.5420008 3.6123209 -0.0334196
96 3 -9.5281821 3.4693041 -0.23804
97 3 -9.4460707 3.335187 -0.529995
98 3 -9.3843527 3.311374 -0.7970257
99 3 -9.2562227 3.2005489 -1.042626
100 3 -9.172328 3.0778971 -1.2386921
101 3 -9.1311884 2.874171 -1.465155
102 3 -9.1123915 2.6928931 -1.611452
103 3 -9.1003199 2.4117839 -1.841325
104 3 -9.1032648 2.28264 -2.0028419
105 3 -9.0028734 2.155015 -2.2571039
106 3 -8.9480276 2.0710001 -2.5051601
107 3 -8.8877498 1.889714 -2.6926279
108 3 -8.8814554 1.6888781 -2.904492
109 3 -8.8067713 1.456365 -3.09606
110 3 -8.7941618 1.2618671 -3.248457
111 3 -8.7501574 1.152099 -3.5467711
112 3 -8.6477919 1.003583 -3.7937889
113 3 -8.5946875 0.9256642 -4.0527258
114 3 -8.5914355 0.7403595 -4.2480092
115 3 -8.5723219 0.5456488 -4.4641972
116 3 -8.5843497 0.3503392 -4.6380539
117 3 -8.5373202 0.2480443 -4.900331
118 3 -8.4109697 0.0556767 -5.1191301
119 3 -8.3451967 -0.1304242 -5.339622
120 3 -8.3873301 -0.3458926 -5.5079818
121 3 -8.3300333 -0.5195243 -5.726892
122 3 -8.2579088 -0.7667987 -5.9386612
123 3 -8.2436113 -0.9569938 -6.070477
124 3 -8.2087298 -1.080123 -6.3590899
125 3 -8.1812964 -1.269042 -6.4976969
126 3 -8.1482821 -1.440796 -6.7152682
127 3 -8.0744638 -1.619079 -6.9513292
128 3 -8.0399447 -1.8356741 -7.1052451
129 3 -8.0092287 -1.979244 -7.3839688
130 3 -7.9582052 -2.2221439 -7.5254112
131 3 -7.901217 -2.3684609 -7.7576952
132 3 -7.9104782 -2.535239 -7.9405832
133 3 -7.923205 -2.780006 -8.1324701
134 3 -7.8866658 -3.0486889 -8.3442469
135 3 -7.8269401 -3.185036 -8.4693308
136 3 -7.8243909 -3.4672261 -8.6483889
137 3 -7.7690692 -3.643059 -8.9008646
138 3 -7.6875239 -3.7651019 -9.0958262
139 3 -7.7062202 -3.998381 -9.23314
140 3 -7.6075411 -4.2527061 -9.4021387
141 3 -7.6079703 -4.3098292 -9.6732455
142 3 -7.5597811 -4.439384 -9.922513
143 3 -7.5479799 -4.5349303 -10.1545601
144 3 -7.485755 -4.5692382 -10.4014597
145 3 -10.4927101 6.379087 5.201891
146 3 -10.4340296 6.3754592 4.9827272
147 3 -10.4071598 6.1912398 4.7434268
148 3 -10.3328505 6.0161829 4.5993591
149 3 -10.2756701 5.7582431 4.457397
150 3 -10.2825604 5.6495452 4.1958551
151 3 -10.1816101 5.430727 3.9750782
152 3 -10.12327 5.2363372 3.7684551
153 3 -10.0711699 5.1484938 3.5210371
154 3 -10.0061302 5.0468969 3.2750759
155 3 -10.0015898 4.9786182 3.0130179
156 3 -9.921937 4.7821269 2.730772
157 3 -9.8596964 4.711565 2.497073
158 3 -9.7975226 4.5861702 2.327682
159 3 -9.7824068 4.4529681 2.0153019
160 3 -9.7512446 4.3273878 1.795852
161 3 -9.7021466 4.1001768 1.592016
162 3 -9.6149445 4.0375042 1.390071
163 3 -9.5777436 3.9577402 1.106843
164 3 -9.5216885 3.8100791 0.8808546
165 3 -9.4091902 3.760305 0.619194
166 3 -9.319314 3.727685 0.364831
167 3 -9.3133059 3.522413 0.059041
168 3 -9.3084269 3.387363 -0.1312981
169 3 -9.2289629 3.345918 -0.4702387
170 3 -9.0875235 3.140336 -0.673624
171 3 -9.0093641 3.0919199 -0.8884726
172 3 -8.9307528 3.005748 -1.127151
173 3 -8.8638296 2.824888 -1.365428
174 3 -8.8646232 2.5812199 -1.498626
175 3 -8.8081332 2.423625 -1.716136
176 3 -8.8055144 2.2155621 -1.829839
177 3 -8.7544489 2.0604341 -2.166754
178 3 -8.6874609 2.0306139 -2.425349
179 3 -8.6725531 1.793864 -2.603606
180 3 -8.6225481 1.614587 -2.8204999
181 3 -8.5947142 1.46367 -2.985488
182 3 -8.542924 1.288558 -3.30671
183 3 -8.5385599 1.1321631 -3.5207761
184 3 -8.3416109 0.9912922 -3.7125139
185 3 -8.3896647 0.8183739 -3.951644
186 3 -8.3349581 0.6654198 -4.1277509
187 3 -8.310256 0.4548133 -4.306881
188 3 -8.3132219 0.2901185 -4.6121531
189 3 -8.267663 0.2064793 -4.8145952
190 3 -8.1762095 0.008138 -4.9746152
191 3 -8.1479254 -0.2538879 -5.1793609
192 3 -8.1086569 -0.4176624 -5.428659
193 3 -8.0885744 -0.6400211 -5.5846882
194 3 -8.0689268 -0.7650402 -5.7927981
195 3 -8.0380678 -0.9912994 -6.025548
196 3 -7.935475 -1.177061 -6.2345362
197 3 -7.897462 -1.308733 -6.4593358
198 3 -7.861836 -1.5057271 -6.65482
199 3 -7.831017 -1.671188 -6.8533182
200 3 -7.7564569 -1.832705 -7.074502
201 3 -7.7468691 -2.0553141 -7.2311368
202 3 -7.65762 -2.2287951 -7.455823
203 3 -7.6609602 -2.3778429 -7.700727
204 3 -7.661222 -2.592973 -7.907632
205 3 -7.6207443 -2.880084 -8.0758257
206 3 -7.5993243 -3.078346 -8.2049837
207 3 -7.5956679 -3.297231 -8.3873453
208 3 -7.5272298 -3.4952171 -8.614377
209 3 -7.4832449 -3.641968 -8.7703333
210 3 -7.4730692 -3.870482 -8.965623
211 3 -7.417985 -4.0558658 -9.1459818
212 3 -7.392283 -4.2648721 -9.387517
213 3 -7.3533912 -4.3973389 -9.6023045
214 3 -7.2858482 -4.5021611 -9.868043
215 3 -7.245625 -4.4794503 -10.1595402
216 3 -7.2338648 -4.66358 -10.3392697
217 3 -10.2367096 6.453878 5.2238088
218 3 -10.1574898 6.3227039 5.0610919
219 3 -10.09266 6.2425532 4.8159871
220 3 -10.0805197 5.9988552 4.6114359
221 3 -10.0527296 5.8226052 4.42837
222 3 -9.9958306 5.61197 4.2586789
223 3 -9.9125014 5.493392 4.0017672
224 3 -9.8560668 5.3821349 3.7627371
225 3 -9.84093 5.2166529 3.5202291
226 3 -9.7645006 5.0770679 3.3503471
227 3 -9.6703978 4.924789 3.1116641
228 3 -9.6078768 4.896347 2.808209
229 3 -9.5955534 4.6530552 2.658386
230 3 -9.5000944 4.560215 2.3700409
231 3 -9.4626398 4.4196139 2.092411
232 3 -9.4568625 4.2640619 1.887308
233 3 -9.4086352 4.118278 1.673488
234 3 -9.37531 3.997035 1.444654
235 3 -9.2887793 3.9795452 1.177232
236 3 -9.2782297 3.8218911 0.9180394
237 3 -9.1429415 3.7403901 0.6778641
238 3 -9.1176539 3.6459921 0.4359293
239 3 -9.1155844 3.521224 0.1246891
240 3 -8.988595 3.3680241 -0.0995455
241 3 -8.9402724 3.25315 -0.2617903
242 3 -8.8190584 3.1007659 -0.5456114
243 3 -8.7765475 3.013145 -0.8130732
244 3 -8.6746969 2.915433 -1.028456
245 3 -8.5949183 2.786182 -1.281066
246 3 -8.628686 2.5979259 -1.418408
247 3 -8.5484419 2.4202051 -1.654408
248 3 -8.530612 2.2582619 -1.8646
249 3 -8.5068732 2.135108 -2.0994749
250 3 -8.4099817 1.995555 -2.296509
251 3 -8.4188013 1.80755 -2.5728941
252 3 -8.3282747 1.6639021 -2.779295
253 3 -8.3661814 1.427207 -3.0053799
254 3 -8.2938995 1.280238 -3.215714
255 3 -8.2406283 1.1454099 -3.3854511
256 3 -8.1549521 0.9455922 -3.6239841
257 3 -8.0982237 0.7411444 -3.851117
258 3 -8.0975695 0.5386078 -4.0699401
259 3 -8.0445166 0.3810799 -4.2933059
260 3 -8.0326986 0.2300628 -4.5056601
261 3 -8.013936 0.0875733 -4.6944781
262 3 -7.948022 -0.1168143 -4.9005418
263 3 -7.9898692 -0.3210208 -5.0572252
264 3 -7.8574592 -0.5044973 -5.2752342
265 3 -7.8097282 -0.6819608 -5.5085392
266 3 -7.7883411 -0.8562362 -5.7531791
267 3 -7.7019449 -1.0100909 -5.949739
268 3 -7.6797991 -1.177382 -6.1563158
269 3 -7.6008201 -1.358242 -6.3221369
270 3 -7.600472 -1.54634 -6.5563712
271 3 -7.5801821 -1.6679811 -6.7487569
272 3 -7.5394659 -1.952731 -6.914384
273 3 -7.484963 -2.075033 -7.1555681
274 3 -7.478858 -2.296252 -7.3364039
275 3 -7.394496 -2.465992 -7.577332
276 3 -7.3957992 -2.6305621 -7.817082
277 3 -7.3480978 -2.83826 -7.9711852
278 3 -7.3240981 -3.072562 -8.1088381
279 3 -7.3051729 -3.2191191 -8.3815889
280 3 -7.2466293 -3.4828129 -8.4974032
281 3 -7.24261 -3.657543 -8.7120295
282 3 -7.2059512 -3.929837 -8.8319445
283 3 -7.1374979 -4.0935612 -9.0380754
284 3 -7.1333108 -4.1804142 -9.3536615
285 3 -7.057004 -4.3639779 -9.5403834
286 3 -7.016665 -4.5170899 -9.8304987
287 3 -7.036654 -4.5965591 -10.0789804
288 3 -6.8744898 -4.62218 -10.3006497
289 3 -9.9661952 6.4951148 5.2663298
290 3 -9.901103 6.3683329 5.0773139
291 3 -9.8476058 6.250032 4.8384261
292 3 -9.7669039 6.0400229 4.651947
293 3 -9.7677737 5.8072372 4.5382052
294 3 -9.7437811 5.6964069 4.2214832
295 3 -9.6391001 5.599349 3.9984232
296 3 -9.6322241 5.369863 3.7675081
297 3 -9.5244417 5.2292018 3.57985
298 3 -9.5206385 5.1002631 3.3332069
299 3 -9.4427939 5.0393882 3.0576961
300 3 -9.3360472 4.8472992 2.882411
301 3 -9.3035288 4.6589942 2.7046199
302 3 -9.3058062 4.5103812 2.4434819
303 3 -9.256423 4.4173031 2.124666
304 3 -9.1635103 4.259191 1.936425
305 3 -9.1234484 4.1354251 1.6927541
306 3 -9.0743704 4.0293379 1.4646681
307 3 -9.0439863 3.932016 1.252612
308 3 -9.0290308 3.7767749 1.00696
309 3 -8.9197846 3.6231661 0.8175287
310 3 -8.8718538 3.446019 0.52248
311 3 -8.8099909 3.420909 0.2854109
312 3 -8.7442789 3.2744081 0.0492353
313 3 -8.6841002 3.1249781 -0.2135153
314 3 -8.6474333 2.9919852 -0.4550219
315 3 -8.4877043 2.9423362 -0.6819144
316 3 -8.3778391 2.890889 -0.9432536
317 3 -8.3694544 2.661144 -1.16715
318 3 -8.3457766 2.4971781 -1.342177
319 3 -8.2923651 2.4099481 -1.577683
320 3 -8.2985163 2.180877 -1.719664
321 3 -8.2335653 2.0528309 -2.025528
322 3 -8.1875792 1.951301 -2.239305
323 3 -8.1716757 1.6950621 -2.3772481
324 3 -8.1350432 1.4899171 -2.672848
325 3 -8.0227594 1.420678 -2.921777
326 3 -7.98977 1.264663 -3.133791
327 3 -7.926774 1.083236 -3.385983
328 3 -7.950614 0.8667482 -3.5030029
329 3 -7.8958902 0.7430031 -3.8125761
330 3 -7.8327132 0.577369 -4.0351
331 3 -7.7877679 0.3748086 -4.2577248
332 3 -7.748797 0.2069123 -4.4217091
333 3 -7.7062578 0.0749514 -4.6742001
334 3 -7.6948982 -0.1481864 -4.7765079
335 3 -7.66042 -0.3093421 -5.0190229
336 3 -7.6061449 -0.4953429 -5.2327562
337 3 -7.6061282 -0.7314966 -5.4113832
338 3 -7.5149851 -0.8829668 -5.6382728
339 3 -7.4984241 -1.054291 -5.851613
340 3 -7.3979941 -1.206942 -6.0432558
341 3 -7.3646941 -1.378469 -6.2546821
342 3 -7.3460441 -1.575909 -6.371819
343 3 -7.3371568 -1.821747 -6.5660262
344 3 -7.263083 -1.931122 -6.8222628
345 3 -7.252162 -2.140543 -7.0448918
346 3 -7.177279 -2.3210111 -7.2782302
347 3 -7.129601 -2.444793 -7.5140729
348 3 -7.1207552 -2.644718 -7.712728
349 3 -7.1248789 -2.928756 -7.839913
350 3 -7.057395 -3.0673399 -8.0878153
351 3 -7.0382342 -3.2650969 -8.2640925
352 3 -7.0343809 -3.4549051 -8.4745684
353 3 -7.0008569 -3.704547 -8.6193276
354 3 -6.912675 -3.8879682 -8.8097306
355 3 -6.910665 -4.0337749 -9.0588503
356 3 -6.8534212 -4.1740599 -9.3394976
357 3 -6.7643819 -4.30828 -9.5294619
358 3 -6.7778392 -4.5398832 -9.7280321
359 3 -6.75072 -4.5533662 -9.980897
360 3 -6.6730552 -4.6258569 -10.1923199
361 3 -9.6595717 6.6617451 5.2257481
362 3 -9.6057768 6.424572 5.11553
363 3 -9.5626345 6.2012882 4.948504
364 3 -9.5010576 6.0621352 4.701675
365 3 -9.4720011 5.861589 4.5026169
366 3 -9.4706049 5.8031459 4.2410178
367 3 -9.3765974 5.5970512 4.020308
368 3 -9.3737688 5.4088378 3.835146
369 3 -9.3049612 5.2509112 3.6615851
370 3 -9.2266817 5.169405 3.3972891
371 3 -9.1075239 5.0193019 3.114202
372 3 -9.0734644 4.8933058 2.89255
373 3 -9.0752993 4.6710792 2.6476181
374 3 -9.0322084 4.5058489 2.4335621
375 3 -8.9632502 4.422576 2.209007
376 3 -8.9208194 4.1828318 2.0357361
377 3 -8.874135 4.0852542 1.777364
378 3 -8.8033381 3.94342 1.531135
379 3 -8.7917776 3.7709129 1.372397
380 3 -8.7719069 3.666673 1.071184
381 3 -8.6832991 3.542835 0.8840076
382 3 -8.6001902 3.471139 0.6317987
383 3 -8.5428925 3.379596 0.4159746
384 3 -8.5480318 3.174434 0.1387701
385 3 -8.4265385 3.0534699 -0.1099672
386 3 -8.2826109 2.984678 -0.3027506
387 3 -8.2147284 2.871194 -0.5955448
388 3 -8.1682234 2.7760329 -0.8362246
389 3 -8.1198816 2.581353 -0.990059
390 3 -8.1227694 2.402055 -1.193152
391 3 -8.0883913 2.2847209 -1.435246
392 3 -7.992385 2.130635 -1.646632
393 3 -7.986268 1.946033 -1.874628
394 3 -7.9573532 1.847026 -2.128705
395 3 -7.954322 1.632041 -2.339577
396 3 -7.8889762 1.514373 -2.5846751
397 3 -7.815701 1.307285 -2.796124
398 3 -7.7164178 1.212466 -3.034925
399 3 -7.681808 1.0800051 -3.3044
400 3 -7.6604471 0.8636678 -3.495059
401 3 -7.602191 0.7025282 -3.6958301
402 3 -7.58637 0.5794041 -3.998179
403 3 -7.520288 0.3591035 -4.126576
404 3 -7.4898792 0.2326997 -4.386992
405 3 -7.408999 -0.0138061 -4.6155391
406 3 -7.4462652 -0.1303813 -4.7898231
407 3 -7.3495469 -0.3454311 -4.980577
408 3 -7.3036032 -0.5794475 -5.1315022
409 3 -7.3121328 -0.7607458 -5.3267589
410 3 -7.2933021 -0.9253252 -5.478539
411 3 -7.1746421 -1.078458 -5.7428179
412 3 -7.1542039 -1.2168 -5.9400802
413 3 -7.1105719 -1.448291 -6.171144
414 3 -7.1115031 -1.64903 -6.3415308
415 3 -7.0538421 -1.8246451 -6.5535941
416 3 -7.0020041 -1.929665 -6.7985392
417 3 -7.0077219 -2.1824369 -7.0141988
418 3 -7.0159731 -2.404299 -7.118073
419 3 -6.9471288 -2.6116419 -7.3542638
420 3 -6.9237572 -2.7241581 -7.6039672
421 3 -6.857131 -2.8990842 -7.777791
422 3 -6.823401 -3.044554 -8.0416193
423 3 -6.782054 -3.234905 -8.2296
424 3 -6.7124872 -3.4382391 -8.4161425
425 3 -6.6976791 -3.6787839 -8.5695811
426 3 -6.6551752 -3.8185489 -8.8571292
427 3 -6.6100889 -4.0141459 -9.0257349
428 3 -6.5829129 -4.2135911 -9.197217
429 3 -6.5036059 -4.3480501 -9.4505091
430 3 -6.4807811 -4.6010232 -9.677228
431 3 -6.445199 -4.6055331 -9.9401218
432 3 -6.384759 -4.596417 -10.1365404
433 3 -9.401845 6.7022763 5.3023749
434 3 -9.3872156 6.50909 5.193831
435 3 -9.2894716 6.2607002 4.9900342
436 3 -9.1840468 6.0840011 4.769857
437 3 -9.2135096 5.9559442 4.526032
438 3 -9.1600123 5.773799 4.3295908
439 3 -9.1217413 5.6929221 4.050117
440 3 -9.0372 5.4493399 3.871441
441 3 -8.9983626 5.283411 3.6716709
442 3 -8.9521762 5.190341 3.4238801
443 3 -8.9514418 5.0471358 3.2118321
444 3 -8.8969928 4.8515602 3.0249951
445 3 -8.805604 4.6849151 2.7778089
446 3 -8.7313109 4.5011249 2.506238
447 3 -8.7247286 4.2979221 2.339721
448 3 -8.6167364 4.236928 2.0923481
449 3 -8.5527697 4.061758 1.839704
450 3 -8.5807543 3.891872 1.661744
451 3 -8.5050669 3.8128619 1.4065141
452 3 -8.4810457 3.638664 1.2387691
453 3 -8.399787 3.498508 0.9954386
454 3 -8.4104319 3.352329 0.7423697
455 3 -8.3403483 3.200341 0.452652
456 3 -8.2336912 3.1368189 0.2402992
457 3 -8.1336832 3.0700071 -0.0384245
458 3 -8.0364847 2.9784602 -0.2275343
459 3 -7.995976 2.728307 -0.5041971
460 3 -7.9252858 2.695916 -0.7120695
461 3 -7.928205 2.4489069 -0.8797256
462 3 -7.8513962 2.390868 -1.15201
463 3 -7.786923 2.2376759 -1.346236
464 3 -7.806767 2.0205469 -1.5514471
465 3 -7.7799139 1.8941262 -1.781456
466 3 -7.6781512 1.75945 -2.0266991
467 3 -7.644589 1.546571 -2.2716229
468 3 -7.622334 1.4024251 -2.5091331
469 3 -7.5218358 1.285043 -2.7284711
470 3 -7.5075479 1.18546 -2.961026
471 3 -7.4163561 1.01527 -3.202122
472 3 -7.3518272 0.9044182 -3.547921
473 3 -7.3348818 0.6796343 -3.678253
474 3 -7.3044791 0.4421208 -3.858846
475 3 -7.2591729 0.3676369 -4.0273762
476 3 -7.2310362 0.1502869 -4.277338
477 3 -7.2048392 -0.0049512 -4.4939223
478 3 -7.1190119 -0.2196033 -4.6602378
479 3 -7.1096811 -0.3715255 -4.8986602
480 3 -7.0561738 -0.562041 -5.0879478
481 3 -7.0117121 -0.7612121 -5.2859988
482 3 -6.981307 -0.9863032 -5.431437
483 3 -6.9356552 -1.09149 -5.666924
484 3 -6.8383842 -1.234084 -5.9264078
485 3 -6.893414 -1.477793 -6.0345888
486 3 -6.8544612 -1.7293791 -6.2293749
487 3 -6.79741 -1.863254 -6.4880529
488 3 -6.7494102 -1.992321 -6.71666
489 3 -6.7293668 -2.205545 -6.9252672
490 3 -6.748178 -2.476954 -7.0891008
491 3 -6.7129112 -2.6183071 -7.3126149
492 3 -6.640172 -2.69152 -7.5278902
493 3 -6.592259 -2.860595 -7.7545209
494 3 -6.5331393 -3.0156429 -7.9928098
495 3 -6.4855199 -3.2642861 -8.2346506
496 3 -6.4585243 -3.434994 -8.3963518
497 3 -6.470254 -3.66972 -8.6182719
498 3 -6.3793211 -3.84704 -8.730443
499 3 -6.3094659 -4.0766468 -9.0309649
500 3 -6.3042312 -4.229487 -9.1367846
501 3 -6.274796 -4.3945141 -9.3874483
502 3 -6.210803 -4.470809 -9.6660395
503 3 -6.1529088 -4.5747042 -9.880147
504 3 -6.0874152 -4.6423459 -10.0975399
505 3 -9.1421042 6.562419 5.4577699
506 3 -9.0870791 6.5157829 5.220345
507 3 -9.0147123 6.305543 5.042706
508 3 -8.9285612 6.1288142 4.8060479
509 3 -8.941884 6.0150809 4.5899802
510 3 -8.891883 5.7949519 4.365346
511 3 -8.7867308 5.6662441 4.2165818
512 3 -8.8081427 5.4797869 3.939136
513 3 -8.6871233 5.366045 3.6950109
514 3 -8.6560374 5.2514172 3.449934
515 3 -8.6675425 5.1234951 3.2680571
516 3 -8.5836096 4.9224162 3.0748019
517 3 -8.5726652 4.7064829 2.811019
518 3 -8.5042696 4.4783259 2.6061721
519 3 -8.4132052 4.333097 2.4295781
520 3 -8.3615523 4.2003112 2.1431611
521 3 -8.3521662 4.0049992 1.890941
522 3 -8.2864103 3.930963 1.6889841
523 3 -8.2559576 3.814004 1.466517
524 3 -8.1975489 3.6323271 1.247922
525 3 -8.2036619 3.5305109 1.015378
526 3 -8.1039152 3.3506 0.7555456
527 3 -7.996758 3.206712 0.5328264
528 3 -7.922523 3.0509789 0.3304052
529 3 -7.9296242 3.0080121 0.081604
530 3 -7.8032522 2.873502 -0.168479
531 3 -7.7870612 2.686467 -0.3231535
532 3 -7.7516151 2.5179441 -0.5533209
533 3 -7.6724921 2.4042411 -0.8041888
534 3 -7.5810271 2.2913749 -1.063275
535 3 -7.6018362 2.0976269 -1.2399941
536 3 -7.5138312 1.993201 -1.533105
537 3 -7.5182452 1.7504801 -1.66925
538 3 -7.4610129 1.626428 -1.921862
539 3 -7.4478579 1.4569791 -2.1347859
540 3 -7.3867641 1.332181 -2.3555591
541 3 -7.282929 1.192054 -2.600322
542 3 -7.259759 1.095598 -2.8707272
543 3 -7.2638669 0.9184946 -3.101095
544 3 -7.1373758 0.7398417 -3.3305719
545 3 -7.12852 0.6334383 -3.5692959
546 3 -7.009522 0.425957 -3.764998
547 3 -7.0439391 0.2007497 -3.915495
548 3 -6.965703 0.0932229 -4.1838698
549 3 -6.9503598 -0.0771539 -4.417512
550 3 -6.8959088 -0.2083242 -4.5967579
551 3 -6.8005109 -0.4000041 -4.8099709
552 3 -6.80688 -0.65079 -5.0147591
553 3 -6.7691088 -0.7753532 -5.2081971
554 3 -6.728631 -1.00976 -5.401114
555 3 -6.7027769 -1.12568 -5.661778
556 3 -6.6314059 -1.324065 -5.8223238
557 3 -6.5878291 -1.53937 -5.9720322
558 3 -6.6103282 -1.7720551 -6.1660128
559 3 -6.4968043 -1.876755 -6.421979
560 3 -6.5249949 -2.044657 -6.6173301
561 3 -6.5326739 -2.3102191 -6.7594462
562 3 -6.4800792 -2.48874 -7.0114832
563 3 -6.3969679 -2.58566 -7.2618952
564 3 -6.3738699 -2.7462371 -7.4734769
565 3 -6.2964721 -2.867694 -7.7038431
566 3 -6.268445 -3.0226359 -7.932126
567 3 -6.24121 -3.2421131 -8.1734324
568 3 -6.1595349 -3.44624 -8.3230639
569 3 -6.1882811 -3.7183051 -8.4483118
570 3 -6.110332 -3.859464 -8.6861353
571 3 -6.0559049 -4.0495348 -8.889268
572 3 -6.0434499 -4.236332 -9.0988016
573 3 -5.982501 -4.3297062 -9.3750734
574 3 -5.907105 -4.5227161 -9.5617991
575 3 -5.871644 -4.5530052 -9.8078242
576 3 -5.8683392 -4.6597271 -10.0042601
577 3 -8.857091 6.4614101 5.562778
578 3 -8.8262167 6.4136438 5.3521629
579 3 -8.7785578 6.286994 5.1184702
580 3 -8.7311182 6.141891 4.8987532
581 3 -8.6643439 5.970562 4.6683631
582 3 -8.5677481 5.7906809 4.442348
583 3 -8.5808306 5.6407428 4.2212219
584 3 -8.5400172 5.5077911 4.0409379
585 3 -8.4763041 5.3571983 3.813762
586 3 -8.3766375 5.3241191 3.49612
587 3 -8.3673868 5.0135551 3.264086
588 3 -8.3246393 4.965015 3.031724
589 3 -8.2728052 4.7139602 2.85179
590 3 -8.2228117 4.5004359 2.664429
591 3 -8.1491079 4.315187 2.498967
592 3 -8.0829325 4.170599 2.258502
593 3 -8.0463095 4.079658 1.991167
594 3 -8.0001612 3.8972312 1.804235
595 3 -7.9602652 3.7574799 1.552822
596 3 -7.949306 3.713311 1.313337
597 3 -7.9011278 3.456573 1.081943
598 3 -7.8627248 3.338212 0.8354236
599 3 -7.7703872 3.173389 0.6242743
600 3 -7.6795969 3.0518789 0.3883238
601 3 -7.6352072 2.893476 0.187993
602 3 -7.6132398 2.7544949 -0.0119734
603 3 -7.5781088 2.5376051 -0.2567472
604 3 -7.4837599 2.4513769 -0.4709234
605 3 -7.4290991 2.315007 -0.7096472
606 3 -7.3360829 2.2277351 -0.9385358
607 3 -7.3366819 2.0184281 -1.13826
608 3 -7.2694922 1.857591 -1.417343
609 3 -7.2594519 1.7021441 -1.5537061
610 3 -7.2268782 1.4779561 -1.793556
611 3 -7.1709342 1.314252 -2.004041
612 3 -7.074584 1.212968 -2.260303
613 3 -7.0585761 1.175395 -2.529063
614 3 -6.996903 1.014959 -2.7657891
615 3 -6.975545 0.9071152 -3.008153
616 3 -6.87358 0.7253402 -3.243866
617 3 -6.8637482 0.4961694 -3.408761
618 3 -6.800807 0.3570826 -3.6306069
619 3 -6.7545519 0.2026675 -3.81725
620 3 -6.7361589 0.0572198 -4.1053672
621 3 -6.628243 -0.0556552 -4.3088522
622 3 -6.592423 -0.2636993 -4.5016518
623 3 -6.5874381 -0.406841 -4.7214232
624 3 -6.5568228 -0.6175754 -4.9133802
625 3 -6.5173579 -0.8535594 -5.0601101
626 3 -6.4501519 -1.006089 -5.3763008
627 3 -6.4163752 -1.195402 -5.5253701
628 3 -6.395288 -1.346574 -5.705873
629 3 -6.387094 -1.604476 -5.901895
630 3 -6.3450422 -1.8038891 -6.1269851
631 3 -6.252326 -1.9747962 -6.311151
632 3 -6.2623549 -2.103545 -6.5134292
633 3 -6.248754 -2.366961 -6.7275591
634 3 -6.312192 -2.51753 -6.932942
635 3 -6.1495261 -2.6923161 -7.1587229
636 3 -6.1013269 -2.775261 -7.374413
637 3 -6.0338511 -2.899662 -7.5823369
638 3 -5.9579922 -3.1067979 -7.848825
639 3 -6.002501 -3.302948 -8.0124063
640 3 -5.880252 -3.4796219 -8.2607088
641 3 -5.8667102 -3.673569 -8.4567461
642 3 -5.8847862 -3.8476862 -8.6322871
643 3 -5.8337302 -4.0900841 -8.8101931
644 3 -5.7497702 -4.1947088 -9.1044321
645 3 -5.6907401 -4.2765231 -9.3861284
646 3 -5.658288 -4.4640732 -9.5529566
647 3 -5.607358 -4.5728989 -9.7918253
648 3 -5.5856562 -4.700758 -10.0172396
649 3 -8.5926523 6.517303 5.6104102
650 3 -8.510974 6.4240031 5.413856
651 3 -8.5035029 6.3540449 5.1694951
652 3 -8.4910355 6.1897922 4.9441882
653 3 -8.3853064 6.0044212 4.6669369
654 3 -8.3423624 5.8600478 4.4400482
655 3 -8.2609453 5.7023268 4.2733798
656 3 -8.2076654 5.5879631 4.015245
657 3 -8.1638956 5.346406 3.8227821
658 3 -8.1818476 5.2316909 3.5508261
659 3 -8.0982637 5.1126909 3.3177831
660 3 -8.053483 4.9981762 3.025274
661 3 -8.0112963 4.7435298 2.840698
662 3 -7.951314 4.527719 2.73825
663 3 -7.9073902 4.3301139 2.4930921
664 3 -7.799264 4.2326999 2.2479119
665 3 -7.8060751 4.059619 2.030164
666 3 -7.7510672 3.917739 1.7920031
667 3 -7.6878252 3.736928 1.60473
668 3 -7.6498099 3.6227141 1.399537
669 3 -7.6430102 3.4455619 1.225578
670 3 -7.6090708 3.2312181 0.9884654
671 3 -7.4821372 3.226825 0.7360735
672 3 -7.400764 3.0621519 0.5179129
673 3 -7.334805 2.8886882 0.2876043
674 3 -7.2928782 2.6928001 0.0823755
675 3 -7.3451452 2.5301581 -0.1731806
676 3 -7.20398 2.4632621 -0.4333944
677 3 -7.137557 2.2841289 -0.6312008
678 3 -7.1465411 2.1184671 -0.8463002
679 3 -7.0857101 1.961313 -1.075688
680 3 -7.056035 1.786525 -1.275419
681 3 -7.035481 1.554296 -1.466817
682 3 -6.935256 1.4015861 -1.6887421
683 3 -6.938838 1.303684 -1.934269
684 3 -6.8552828 1.133937 -2.1238639
685 3 -6.7816673 1.025453 -2.4077439
686 3 -6.7823649 0.9807542 -2.6576829
687 3 -6.6985603 0.788523 -2.912258
688 3 -6.6537261 0.6289093 -3.1198011
689 3 -6.639741 0.425134 -3.2869151
690 3 -6.5637012 0.2499421 -3.5218101
691 3 -6.4793411 0.1506207 -3.753578
692 3 -6.4118319 0.0220321 -3.980514
693 3 -6.3999128 -0.0544688 -4.2558022
694 3 -6.365159 -0.3015668 -4.430491
695 3 -6.3137899 -0.4455325 -4.638041
696 3 -6.2945991 -0.7253168 -4.827765
697 3 -6.2136889 -0.8663452 -5.0887842
698 3 -6.2120142 -1.066856 -5.2355042
699 3 -6.157125 -1.256653 -5.3975492
700 3 -6.1064391 -1.395139 -5.6570521
701 3 -6.1180239 -1.707094 -5.788621
702 3 -6.1086741 -1.840855 -6.057858
703 3 -5.9674922 -1.9654192 -6.2778793
704 3 -6.025598 -2.1212349 -6.4754839
705 3 -5.9490582 -2.334198 -6.6250391
706 3 -5.947116 -2.5405159 -6.842362
707 3 -5.873418 -2.6293581 -7.1210642
708 3 -5.8404822 -2.7618931 -7.3034492
709 3 -5.786624 -2.9368852 -7.5586672
710 3 -5.7533732 -3.121886 -7.7611251
711 3 -5.731751 -3.35391 -7.9770398
712 3 -5.651834 -3.5418871 -8.1572733
713 3 -5.647202 -3.6999049 -8.368371
714 3 -5.5991721 -3.940122 -8.5273371
715 3 -5.5196791 -4.0577922 -8.7776385
716 3 -5.5198322 -4.1914411 -8.9989328
717 3 -5.4090552 -4.2853809 -9.2752504
718 3 -5.39116 -4.5089989 -9.477006
719 3 -5.3093939 -4.6267948 -9.7502108
720 3 -5.2351999 -4.628882 -9.9389124
721 3 -8.3377733 6.497221 5.629292
722 3 -8.2494593 6.4556399 5.393744
723 3 -8.1686907 6.3167591 5.1787272
724 3 -8.1327467 6.202148 4.9288878
725 3 -8.1294737 6.0064182 4.7216029
726 3 -8.0562239 5.848981 4.5023809
727 3 -8.0174398 5.7830019 4.272368
728 3 -7.945573 5.5933571 4.0716038
729 3 -7.911162 5.3584461 3.80197
730 3 -7.8539062 5.2552452 3.6035459
731 3 -7.8129702 5.0779972 3.3354039
732 3 -7.759418 4.9846282 3.0564239
733 3 -7.7104712 4.8397732 2.8535162
734 3 -7.665071 4.5889321 2.7072959
735 3 -7.5998659 4.4327412 2.4701691
736 3 -7.5935068 4.2445541 2.2911019
737 3 -7.5322562 4.061935 2.0805199
738 3 -7.4829612 3.916555 1.85921
739 3 -7.4417262 3.737546 1.709779
740 3 -7.385953 3.5848971 1.4404841
741 3 -7.330894 3.4896181 1.213661
742 3 -7.294003 3.2712851 1.028385
743 3 -7.2533479 3.123775 0.848219
744 3 -7.2068191 2.9829382 0.5461082
745 3 -7.1269708 2.844743 0.3746538
746 3 -7.043561 2.6827631 0.0839272
747 3 -7.026998 2.558564 -0.1299219
748 3 -6.953137 2.37045 -0.3061819
749 3 -6.9273082 2.2188051 -0.5122929
750 3 -6.845542 2.0794189 -0.7870016
751 3 -6.828588 1.91974 -0.9635154
752 3 -6.841012 1.718145 -1.189055
753 3 -6.7586012 1.5544961 -1.3814221
754 3 -6.7111502 1.374192 -1.583602
755 3 -6.6775031 1.1803451 -1.806917
756 3 -6.633111 1.0755841 -2.0434141
757 3 -6.5879789 0.8595822 -2.2824099
758 3 -6.5375529 0.8475296 -2.543109
759 3 -6.4916849 0.6313308 -2.726733
760 3 -6.3884101 0.5699561 -3.03023
761 3 -6.3340249 0.3950932 -3.228189
762 3 -6.327735 0.1661866 -3.410264
763 3 -6.2487192 0.0980542 -3.6847401
764 3 -6.1944442 0.0238746 -3.908025
765 3 -6.0942831 -0.2031181 -4.1374512
766 3 -6.0799441 -0.336148 -4.3645458
767 3 -6.0552778 -0.4954898 -4.5441222
768 3 -6.0647521 -0.6959903 -4.7534938
769 3 -5.956964 -0.8325164 -4.9837652
770 3 -5.894063 -1.0836461 -5.1395421
771 3 -5.9500952 -1.2978801 -5.337275
772 3 -5.8775148 -1.543155 -5.5222049
773 3 -5.8593002 -1.718926 -5.7567492
774 3 -5.8475052 -1.916751 -5.9315958
775 3 -5.7445612 -2.021987 -6.2284169
776 3 -5.7067542 -2.1939731 -6.4216781
777 3 -5.6813822 -2.428814 -6.6180539
778 3 -5.6477752 -2.587277 -6.8009
779 3 -5.6329489 -2.738061 -7.0260711
780 3 -5.6013689 -2.858492 -7.2499781
781 3 -5.5879641 -3.011513 -7.4487238
782 3 -5.5214262 -3.1732791 -7.7077761
783 3 -5.4492102 -3.420312 -7.885839
784 3 -5.415803 -3.5982039 -8.0368166
785 3 -5.3566709 -3.7461591 -8.3073702
786 3 -5.3163648 -3.896137 -8.5400133
787 3 -5.2533922 -4.1198878 -8.7140675
788 3 -5.2213602 -4.2470179 -8.992589
789 3 -5.1236181 -4.3333631 -9.2022524
790 3 -5.1368342 -4.5397148 -9.4267588
791 3 -5.0369182 -4.6632972 -9.618104
792 3 -4.9569082 -4.7063718 -9.902177
793 3 -8.0634298 6.5155368 5.7623039
794 3 -7.9806528 6.472106 5.524684
795 3 -7.958333 6.30406 5.3419662
796 3 -7.873929 6.1011419 5.0511889
797 3 -7.8233371 6.0478129 4.8021403
798 3 -7.7745772 5.925642 4.573967
799 3 -7.7110739 5.7550731 4.3007741
800 3 -7.680039 5.546186 4.1351719
801 3 -7.667285 5.4655133 3.8063619
802 3 -7.624907 5.2824402 3.6140871
803 3 -7.544858 5.1537662 3.4059971
804 3 -7.5028119 4.9974042 3.1523449
805 3 -7.4008422 4.7997408 2.964866
806 3 -7.3550959 4.6984229 2.6726411
807 3 -7.3205519 4.4612751 2.461078
808 3 -7.2961531 4.2829342 2.286294
809 3 -7.2164531 4.0948648 2.0995309