ITEM: TIMESTEP
1
ITEM: NUMBER OF ATOMS
103454
ITEM: BOX BOUNDS pp pp pp
-16.0849991 16.0849991
-16.0849991 16.0849991
-16.0849991 16.0849991
ITEM: ATOMS id type x y z
1 3 8.3724995 -4.4347101 9.8649206
2 3 8.3297558 -4.2000489 9.7486868
3 3 8.3185978 -3.9468082 9.6503554
4 3 8.3288651 -3.792363 9.4269219
5 3 8.2573128 -3.472601 9.2983685
6 3 8.2497597 -3.2736941 9.0685358
7 3 8.4129124 -3.1794901 8.8012886
8 3 8.4691658 -2.942421 8.5905276
9 3 8.467535 -2.76557 8.409893
10 3 8.4756699 -2.604935 8.0988073
11 3 8.5032444 -2.4949861 7.9403362
12 3 8.5610657 -2.358891 7.693461
13 3 8.6798287 -2.3405001 7.4282122
14 3 8.7686024 -2.2012391 7.1583638
15 3 8.7060738 -1.991393 6.969008
16 3 8.7227478 -1.769961 6.7975869
17 3 8.8039894 -1.6224851 6.5892239
18 3 8.8461018 -1.5028271 6.3412008
19 3 8.8195935 -1.250231 6.199265
20 3 8.8169346 -1.125086 5.9922438
21 3 8.8254338 -0.8291745 5.8252359
22 3 8.6906109 -0.5818869 5.649138
23 3 8.7184315 -0.3367639 5.4392782
24 3 8.6742077 -0.1693654 5.206068
25 3 8.6204891 0.124475 5.1379762
26 3 8.5879917 0.2633185 4.9186792
27 3 8.6014099 0.5008464 4.750937
28 3 8.6046849 0.7257991 4.5264082
29 3 8.627245 0.8667408 4.3369589
30 3 8.5761471 1.069114 4.1866808
31 3 8.5601521 1.29565 3.918732
32 3 8.589077 1.46278 3.6994419
33 3 8.5384312 1.7853121 3.5899241
34 3 8.563076 1.928478 3.3196859
35 3 8.5227146 2.1142459 3.201227
36 3 8.540493 2.3508489 2.988955
37 3 8.5416365 2.510654 2.7548931
38 3 8.5632553 2.7538791 2.552131
39 3 8.5637656 2.882787 2.3491931
40 3 8.675005 3.0399849 2.133625
41 3 8.6789761 3.2089319 1.8286231
42 3 8.7938099 3.2903359 1.637108
43 3 8.9434968 3.354238 1.372906
44 3 9.0150127 3.396842 1.111344
45 3 9.0745745 3.560108 0.8848658
46 3 9.0996819 3.7506211 0.5929528
47 3 9.0726223 3.988636 0.4590406
48 3 9.0435047 4.0484729 0.2548275
49 3 9.1467762 4.2276678 -0.0191393
50 3 9.2180596 4.3417831 -0.2667322
51 3 9.2698193 4.4807282 -0.5172052
52 3 9.2710419 4.6970063 -0.6686258
53 3 9.2976322 4.8185859 -0.920579
54 3 9.405159 4.929718 -1.1710939
55 3 9.4012566 5.0701771 -1.4368891
56 3 9.4449406 5.3161621 -1.590699
57 3 9.3586464 5.6370158 -1.6534701
58 3 9.3519545 5.8427348 -1.849061
59 3 9.3258743 6.0289092 -2.035327
60 3 9.242487 6.346282 -2.1017849
61 3 9.3144302 6.5517268 -2.2956741
62 3 9.2157593 6.7997909 -2.401309
63 3 9.157341 7.0648842 -2.564153
64 3 9.1782303 7.3086119 -2.7088139
65 3 9.209053 7.482194 -2.902757
66 3 9.2192783 7.7485099 -3.07359
67 3 9.1425953 7.9410148 -3.3477221
68 3 9.1921959 8.0837669 -3.589808
69 3 9.2281132 8.3369961 -3.7243719
70 3 9.1422653 8.6482506 -3.877086
71 3 9.0751085 8.8474942 -4.055892
72 3 8.9736996 8.9605218 -4.2382779
73 3 8.1806355 -4.4271322 9.8634462
74 3 8.1325188 -4.245821 9.7906304
75 3 8.0874252 -4.0389638 9.5707932
76 3 8.0883446 -3.7969501 9.3821068
77 3 8.1331883 -3.633965 9.1934729
78 3 8.1861343 -3.440356 8.934803
79 3 8.2272701 -3.284327 8.6839819
80 3 8.2694264 -3.0835819 8.5032559
81 3 8.2603989 -2.8813692 8.3089581
82 3 8.2872658 -2.679802 8.0774851
83 3 8.3419514 -2.639468 7.785707
84 3 8.4641972 -2.5762789 7.5867191
85 3 8.4460793 -2.4521361 7.3624249
86 3 8.5243836 -2.287575 7.1469078
87 3 8.4953938 -2.064991 6.9081268
88 3 8.477089 -1.8375861 6.7483449
89 3 8.5377789 -1.678757 6.4817291
90 3 8.5993366 -1.5229501 6.2921152
91 3 8.5890694 -1.278975 6.1151571
92 3 8.5862885 -1.094204 5.934114
93 3 8.6192246 -0.8904768 5.6822038
94 3 8.6246109 -0.6898999 5.4673581
95 3 8.5695105 -0.4697118 5.3681779
96 3 8.5034752 -0.2745957 5.1572461
97 3 8.4685536 -0.0064874 4.957347
98 3 8.4612713 0.130733 4.793057
99 3 8.4692154 0.3265433 4.6116052
100 3 8.461731 0.5739818 4.4443999
101 3 8.5431824 0.767446 4.165236
102 3 8.3963528 1.021066 4.0475702
103 3 8.3795757 1.1905971 3.8218999
104 3 8.3640614 1.4234211 3.629771
105 3 8.35289 1.640487 3.4658439
106 3 8.3374901 1.8088551 3.2257559
107 3 8.2760239 2.0887139 3.1187651
108 3 8.3113213 2.264488 2.9228052
109 3 8.3992396 2.4578409 2.731056
110 3 8.3935318 2.6461771 2.516876
111 3 8.4401551 2.759414 2.2330401
112 3 8.4542752 2.950918 2.028235
113 3 8.5403862 3.10201 1.817039
114 3 8.6833134 3.1961279 1.516004
115 3 8.7623406 3.2900541 1.23829
116 3 8.8129826 3.409133 1.03387
117 3 8.8648034 3.48891 0.7786894
118 3 8.8752328 3.5987411 0.562232
119 3 8.946434 3.763855 0.3323803
120 3 8.9576302 3.9626862 0.106801
121 3 8.9973374 4.0653739 -0.111639
122 3 9.0460358 4.243011 -0.3702745
123 3 9.042551 4.3854518 -0.549058
124 3 9.0962143 4.5378952 -0.7713823
125 3 9.1219292 4.7614532 -1.008487
126 3 9.2131901 4.884544 -1.2593581
127 3 9.1778984 5.0861282 -1.4301601
128 3 9.2168827 5.3463402 -1.600137
129 3 9.2361031 5.52177 -1.78457
130 3 9.124836 5.775415 -1.872624
131 3 9.1018696 6.0212932 -2.077462
132 3 9.0655174 6.2372952 -2.231297
133 3 9.0879145 6.48945 -2.4189961
134 3 9.0811806 6.7029701 -2.560195
135 3 9.1013575 6.954536 -2.7206681
136 3 9.0481014 7.1688089 -2.9409212
137 3 9.0287228 7.4116702 -3.053246
138 3 8.9612408 7.6734772 -3.211082
139 3 8.9967156 7.8509822 -3.392463
140 3 9.0446529 8.0442772 -3.6629269
141 3 9.0326443 8.2464495 -3.86337
142 3 8.9988462 8.4943657 -3.951055
143 3 8.8666496 8.7634163 -4.1357222
144 3 8.7604046 8.8637982 -4.149312
145 3 7.8546052 -4.4095459 9.8737564
146 3 7.870369 -4.401495 9.6148348
147 3 7.8783312 -4.1881051 9.4749241
148 3 7.886817 -3.8862392 9.2623577
149 3 7.8902002 -3.725081 9.0697088
150 3 7.9256392 -3.5461741 8.8304549
151 3 8.0347862 -3.4498391 8.5493412
152 3 8.1141663 -3.2533081 8.3251724
153 3 8.0908566 -3.0837941 8.1558399
154 3 8.1096745 -2.937363 7.9609842
155 3 8.1656246 -2.8074329 7.6581083
156 3 8.2130585 -2.727089 7.4286361
157 3 8.249197 -2.581429 7.2087159
158 3 8.2699776 -2.30513 7.028192
159 3 8.2063713 -2.14357 6.7821298
160 3 8.3560486 -1.97819 6.560442
161 3 8.304699 -1.7563731 6.45752
162 3 8.3124218 -1.571126 6.2420402
163 3 8.3746758 -1.398119 6.0419979
164 3 8.3717842 -1.176564 5.8205438
165 3 8.3723068 -1.019721 5.614738
166 3 8.3719444 -0.820601 5.3644929
167 3 8.3481674 -0.6228662 5.1742492
168 3 8.3290596 -0.3975377 5.0201349
169 3 8.2374382 -0.1478543 4.883145
170 3 8.2994652 -0.0052114 4.5985399
171 3 8.2790604 0.2272964 4.4543863
172 3 8.3559952 0.4228129 4.2334452
173 3 8.2961292 0.6238971 4.0821538
174 3 8.2657013 0.901878 3.908164
175 3 8.0916519 1.164533 3.79793
176 3 8.1115456 1.3371201 3.6006911
177 3 8.1445122 1.488662 3.3558741
178 3 8.1006584 1.748479 3.211776
179 3 8.0791245 1.939468 3.0218401
180 3 8.1073093 2.1973641 2.798573
181 3 8.1721535 2.3730459 2.6142781
182 3 8.210825 2.4959879 2.3764961
183 3 8.2393665 2.6774249 2.1270821
184 3 8.283514 2.79631 1.8741652
185 3 8.3695164 2.940765 1.649379
186 3 8.3709679 3.0993459 1.414744
187 3 8.4699288 3.199203 1.121905
188 3 8.5775681 3.363328 0.9011602
189 3 8.6098843 3.383817 0.653203
190 3 8.6979084 3.499013 0.4006872
191 3 8.7649212 3.644403 0.1935282
192 3 8.7330837 3.869359 0.0052128
193 3 8.7903557 3.967638 -0.235939
194 3 8.8364887 4.041008 -0.4842653
195 3 8.8056507 4.2673159 -0.7021303
196 3 8.9000854 4.4399982 -0.9070616
197 3 8.9542714 4.5799499 -1.150668
198 3 8.9125196 4.8215728 -1.304397
199 3 8.9479056 4.9404688 -1.5074491
200 3 8.9033928 5.2511268 -1.673739
201 3 8.9567576 5.4168539 -1.815511
202 3 8.9258614 5.6617308 -2.0368781
203 3 8.908228 5.890678 -2.170619
204 3 8.847765 6.1587291 -2.335273
205 3 8.8315048 6.3939409 -2.522553
206 3 8.8166523 6.6725898 -2.63026
207 3 8.8119889 6.9084072 -2.787972
208 3 8.8125716 7.029304 -3.0616269
209 3 8.830534 7.2667842 -3.19978
210 3 8.7752247 7.5496021 -3.3049541
211 3 8.789793 7.7652092 -3.467799
212 3 8.7396298 7.9944782 -3.6616199
213 3 8.743908 8.142622 -3.933398
214 3 8.7028828 8.3446846 -4.041575
215 3 8.6015826 8.6036759 -4.1204038
216 3 8.5134964 8.8775558 -4.181983
217 3 7.6466642 -4.7020002 9.7361956
218 3 7.6985779 -4.5037618 9.4857741
219 3 7.706286 -4.2875261 9.3767634
220 3 7.7318878 -4.0565972 9.1366959
221 3 7.724442 -3.8049171 8.9609356
222 3 7.7066369 -3.666277 8.7042218
223 3 7.7673841 -3.449193 8.4837322
224 3 7.7858701 -3.344681 8.2826815
225 3 7.8679528 -3.2456651 7.9603128
226 3 7.896843 -3.034199 7.7719403
227 3 7.9560552 -2.969908 7.5124998
228 3 7.9380422 -2.75191 7.3505669
229 3 7.962039 -2.594595 7.1161332
230 3 7.9974012 -2.4741221 6.9248972
231 3 8.0292797 -2.284029 6.6843858
232 3 8.0672894 -2.066947 6.481175
233 3 8.0797958 -1.845662 6.2453332
234 3 8.103056 -1.7001161 6.0528069
235 3 8.10322 -1.505824 5.857245
236 3 8.1357269 -1.299277 5.650403
237 3 8.1593885 -1.108574 5.4643231
238 3 8.1302128 -0.9276396 5.2188978
239 3 8.1277161 -0.7755742 5.0815649
240 3 8.1063156 -0.5600801 4.85736
241 3 8.1087875 -0.3261514 4.6876359
242 3 8.0463142 -0.1030469 4.5047989
243 3 8.1508713 0.0812354 4.3001752
244 3 8.1297045 0.2845836 4.1180959
245 3 8.0731964 0.5063796 3.92952
246 3 8.0276337 0.7568297 3.7648549
247 3 8.0026016 0.9950634 3.6679349
248 3 7.939457 1.184846 3.421717
249 3 7.9150572 1.4356671 3.220932
250 3 7.904727 1.59671 3.0637181
251 3 7.88099 1.857111 2.933544
252 3 7.879931 2.055454 2.7155671
253 3 7.9344492 2.282861 2.4938741
254 3 7.9578882 2.436883 2.248971
255 3 8.0231743 2.5208409 1.9691452
256 3 8.0966606 2.6729541 1.746585
257 3 8.1625557 2.8233409 1.504495
258 3 8.1799831 3.0648019 1.303918
259 3 8.2033253 3.1415341 1.0589139
260 3 8.2957153 3.293994 0.8310118
261 3 8.3589249 3.381717 0.5773439
262 3 8.4726467 3.390604 0.3315468
263 3 8.4994908 3.634063 0.0991297
264 3 8.4617882 3.7545491 -0.1518078
265 3 8.537899 3.882274 -0.3887663
266 3 8.6390724 4.0248408 -0.6123877
267 3 8.6596947 4.1765509 -0.7835913
268 3 8.6545944 4.357738 -1.0237989
269 3 8.6961136 4.4842911 -1.246818
270 3 8.7040158 4.6933322 -1.457767
271 3 8.7179127 4.8548962 -1.6771671
272 3 8.6711655 5.1465259 -1.823306
273 3 8.7584629 5.3724651 -2.001384
274 3 8.7184887 5.5939021 -2.1824751
275 3 8.6877613 5.8123203 -2.327945
276 3 8.7225609 6.0390282 -2.4786141
277 3 8.5857697 6.3392019 -2.608449
278 3 8.5891133 6.550582 -2.7977591
279 3 8.5181008 6.8213291 -2.925372
280 3 8.5452938 6.9869318 -3.122653
281 3 8.5707226 7.183588 -3.314527
282 3 8.6080761 7.4540191 -3.521739
283 3 8.6041336 7.5862122 -3.6733849
284 3 8.4696217 7.898748 -3.7618211
285 3 8.5244599 8.0933723 -3.958413
286 3 8.4587994 8.267767 -4.157577
287 3 8.405119 8.525074 -4.2102189
288 3 8.3776684 8.7232991 -4.4159632
289 3 7.5410562 -4.846488 9.5165043
290 3 7.4636851 -4.6272321 9.3895865
291 3 7.4735089 -4.3901329 9.2012281
292 3 7.5229311 -4.2487092 8.9366008
293 3 7.5040212 -3.971894 8.8146401
294 3 7.5127359 -3.833251 8.5994959
295 3 7.5582261 -3.6250839 8.3650293
296 3 7.621994 -3.5318001 8.1467381
297 3 7.6458879 -3.3714759 7.8952842
298 3 7.7189489 -3.207875 7.6789122
299 3 7.6955462 -3.000277 7.44591
300 3 7.705267 -2.8318181 7.253036
301 3 7.7552862 -2.7277019 6.982617
302 3 7.8009629 -2.595171 6.7450862
303 3 7.822598 -2.3561139 6.5932441
304 3 7.8159361 -2.1842051 6.3774748
305 3 7.8947048 -2.0476651 6.1493478
306 3 7.907023 -1.792349 5.958871
307 3 7.890309 -1.593764 5.7485199
308 3 7.9030062 -1.445712 5.5579229
309 3 7.922143 -1.271794 5.3680649
310 3 7.937132 -1.054543 5.150517
311 3 7.9666238 -0.8728872 4.91225
312 3 7.9051652 -0.6818033 4.7070861
313 3 7.935721 -0.483767 4.5557499
314 3 7.9782152 -0.2449632 4.3630419
315 3 7.9509932 -0.0565438 4.1576772
316 3 7.968132 0.1497569 3.975026
317 3 7.8714872 0.4055133 3.803885
318 3 7.7951422 0.6271358 3.6571219
319 3 7.7532239 0.8359199 3.463866
320 3 7.8118482 1.015815 3.2827151
321 3 7.7224322 1.277105 3.121243
322 3 7.6895871 1.520631 2.945797
323 3 7.7249718 1.728639 2.768488
324 3 7.7155442 1.9388 2.5774479
325 3 7.7403569 2.133487 2.3701561
326 3 7.7300482 2.3063769 2.099793
327 3 7.8179751 2.441555 1.86584
328 3 7.9008622 2.5735431 1.653108
329 3 7.892334 2.790287 1.431036
330 3 7.9659162 2.8974992 1.2005661
331 3 7.980137 3.1138909 0.9964914
332 3 8.0651665 3.1649511 0.7369758
333 3 8.0965443 3.283252 0.4939528
334 3 8.1992264 3.306869 0.2580242
335 3 8.2620182 3.4772661 -0.0174255
336 3 8.2760792 3.636497 -0.2260103
337 3 8.3570709 3.7107771 -0.4784403
338 3 8.3777428 3.891628 -0.7397262
339 3 8.3899708 4.0982471 -0.906581
340 3 8.4139614 4.331995 -1.123935
341 3 8.4078941 4.4144802 -1.3665151
342 3 8.4463883 4.6791029 -1.50299
343 3 8.4423523 4.8577462 -1.702495
344 3 8.4076443 5.0909648 -1.838927
345 3 8.4517594 5.3031292 -2.0436201
346 3 8.4984246 5.5361018 -2.216708
347 3 8.4703827 5.7157111 -2.4473679
348 3 8.4635563 5.9829798 -2.6246209
349 3 8.4814854 6.1732168 -2.8595
350 3 8.3949089 6.4328652 -2.897826
351 3 8.3230744 6.6860352 -3.075366
352 3 8.2836266 6.9445362 -3.231427
353 3 8.3339176 7.139905 -3.428721
354 3 8.4136295 7.2968021 -3.6146291
355 3 8.3357239 7.550972 -3.7803049
356 3 8.3332386 7.733707 -3.898814
357 3 8.2630654 7.963583 -4.0725832
358 3 8.2319603 8.1601849 -4.245513
359 3 8.1945343 8.3989048 -4.4498172
360 3 8.1097565 8.5868511 -4.4470282
361 3 7.4133039 -4.970532 9.3759976
362 3 7.3509531 -4.790484 9.2347326
363 3 7.3142042 -4.5708299 9.0348587
364 3 7.303771 -4.3142362 8.9124308
365 3 7.2904358 -4.097414 8.7228165
366 3 7.318852 -3.983304 8.4879008
367 3 7.3999071 -3.80514 8.2747202
368 3 7.4083142 -3.6074851 7.9939982
369 3 7.4152799 -3.483387 7.7665949
370 3 7.4606939 -3.2574661 7.5965929
371 3 7.4175801 -3.1351111 7.3334851
372 3 7.48666 -2.9326922 7.083035
373 3 7.4561911 -2.844059 6.8529668
374 3 7.5581312 -2.661845 6.638577
375 3 7.562201 -2.4696491 6.433724
376 3 7.5584259 -2.240098 6.2093649
377 3 7.660008 -2.1063261 6.0264859
378 3 7.6525288 -1.929163 5.861093
379 3 7.651949 -1.752873 5.6869149
380 3 7.684639 -1.5789271 5.357615
381 3 7.70995 -1.354479 5.1872191
382 3 7.7133179 -1.1226471 4.990696
383 3 7.6956258 -0.9581304 4.783381
384 3 7.6658459 -0.7512079 4.633894
385 3 7.7236328 -0.5631413 4.400826
386 3 7.680769 -0.3604093 4.2253652
387 3 7.765955 -0.2093034 4.0140018
388 3 7.72333 0.0143924 3.855803
389 3 7.6912618 0.2517486 3.6591439
390 3 7.6334038 0.4306254 3.56688
391 3 7.6336332 0.6269336 3.305356
392 3 7.645432 0.8879104 3.1318569
393 3 7.52277 1.110898 2.987959
394 3 7.5599809 1.304924 2.781184
395 3 7.5359559 1.622886 2.5751691
396 3 7.496182 1.820014 2.4125531
397 3 7.4651952 2.057905 2.2506509
398 3 7.5403033 2.1986251 2.0191841
399 3 7.6372819 2.259397 1.7591011
400 3 7.625351 2.44131 1.521416
401 3 7.6846318 2.645355 1.3163051
402 3 7.7136159 2.7953871 1.068363
403 3 7.7070341 2.981098 0.8526956
404 3 7.8013459 3.052341 0.5852785
405 3 7.874035 3.1313191 0.3602562
406 3 8.0243835 3.176404 0.1275358
407 3 8.0317993 3.334033 -0.1315279
408 3 8.069809 3.5421651 -0.3481474
409 3 8.0837517 3.6033681 -0.6156608
410 3 8.121151 3.769332 -0.8244295
411 3 8.1347656 4.0173931 -0.9685718
412 3 8.1406956 4.2558842 -1.171514
413 3 8.1331158 4.4803648 -1.393909
414 3 8.1335621 4.619493 -1.630589
415 3 8.1929855 4.803545 -1.778966
416 3 8.1609726 5.000309 -1.979255
417 3 8.2089768 5.2442088 -2.133574
418 3 8.2216644 5.395896 -2.365232
419 3 8.2331352 5.643085 -2.504268
420 3 8.1850205 5.8517008 -2.6942661
421 3 8.2193813 6.0992141 -2.9181472
422 3 8.1536846 6.3357158 -3.0405841
423 3 8.1563931 6.508462 -3.2607911
424 3 8.141428 6.809886 -3.4125149
425 3 8.1173687 6.983318 -3.6111541
426 3 8.1738129 7.1695089 -3.785645
427 3 8.1892929 7.4083991 -3.9558762
428 3 8.1164045 7.624559 -4.067925
429 3 8.0122566 7.8433972 -4.1866388
430 3 7.960114 8.0243645 -4.3576918
431 3 7.9158412 8.3182049 -4.4551988
432 3 7.8922092 8.5292073 -4.6032501
433 3 7.1406751 -5.0206151 9.2996597
434 3 7.0702138 -4.884121 9.1539183
435 3 7.0466099 -4.6742621 8.9530516
436 3 7.0188851 -4.4771452 8.77911
437 3 7.053412 -4.2392602 8.6240034
438 3 7.1584921 -4.0895891 8.3925686
439 3 7.1821389 -3.982136 8.1357584
440 3 7.1521549 -3.656111 7.9334278
441 3 7.2086129 -3.586926 7.7047673
442 3 7.2390809 -3.4531119 7.4308839
443 3 7.1779289 -3.2016261 7.2829752
444 3 7.2864881 -3.157526 6.983399
445 3 7.2888188 -2.9821862 6.7375031
446 3 7.3129139 -2.772532 6.5287309
447 3 7.3835001 -2.58128 6.2543879
448 3 7.3418279 -2.353236 6.1653118
449 3 7.385191 -2.1863389 5.900221
450 3 7.4259062 -2.043015 5.6935711
451 3 7.4809289 -1.819615 5.5109639
452 3 7.403069 -1.561194 5.3349099
453 3 7.4230409 -1.459399 5.1283522
454 3 7.428246 -1.261853 4.9159708
455 3 7.4127622 -1.062008 4.749825
456 3 7.439013 -0.8572928 4.526793
457 3 7.3961592 -0.6874585 4.3007398
458 3 7.4539342 -0.5197453 4.0736299
459 3 7.4798069 -0.3305459 3.88591
460 3 7.461535 -0.1310143 3.664414
461 3 7.4688759 0.0655036 3.5540569
462 3 7.4811793 0.273149 3.335305
463 3 7.4527669 0.546947 3.1622579
464 3 7.4217859 0.7278973 2.9642342
465 3 7.3708348 0.9829936 2.8147969
466 3 7.3779721 1.189332 2.65272
467 3 7.3422842 1.45532 2.500248
468 3 7.2701841 1.68544 2.32882
469 3 7.2807341 1.959527 2.1344171
470 3 7.3214822 2.041105 1.876157
471 3 7.3693991 2.1414101 1.615893
472 3 7.4437619 2.290544 1.408514
473 3 7.4740281 2.501194 1.172763
474 3 7.4676442 2.68184 0.9920368
475 3 7.524889 2.853715 0.7336817
476 3 7.6080232 2.86654 0.4801579
477 3 7.6998048 2.988719 0.2079229
478 3 7.766572 3.0969961 -0.0194635
479 3 7.857686 3.2519391 -0.2410021
480 3 7.778462 3.43169 -0.4346933
481 3 7.8096781 3.5635729 -0.6994009
482 3 7.8771182 3.7415121 -0.8751746
483 3 7.863392 3.911895 -1.124362
484 3 7.7998891 4.2053409 -1.247203
485 3 7.873663 4.3696251 -1.4294731
486 3 7.8344202 4.6116748 -1.6625411
487 3 7.903975 4.7482982 -1.849458
488 3 7.920722 4.9411368 -2.076926
489 3 7.9233098 5.1458011 -2.1928029
490 3 8.0108376 5.3561931 -2.4166231
491 3 7.9949002 5.5889449 -2.595809
492 3 7.9926902 5.7244468 -2.812541
493 3 7.9211202 6.007669 -3.0319891
494 3 7.909565 6.2363811 -3.1350601
495 3 7.930193 6.4337168 -3.3537929
496 3 7.945418 6.6314831 -3.5965469
497 3 7.921433 6.8258591 -3.7618339
498 3 7.9480162 7.0670872 -3.9156872
499 3 7.8983102 7.2800708 -4.0225339
500 3 7.8381219 7.4804912 -4.221097
501 3 7.7856832 7.715715 -4.3012862
502 3 7.806046 8.0172672 -4.508771
503 3 7.6422539 8.213398 -4.5737472
504 3 7.6962652 8.3785725 -4.766387
505 3 6.842804 -5.119092 9.1649075
506 3 6.8101678 -4.8996512 9.0681763
507 3 6.805203 -4.7106748 8.8827172
508 3 6.828085 -4.5291281 8.6657648
509 3 6.877072 -4.3414521 8.4935732
510 3 6.8587308 -4.1298781 8.2931194
511 3 6.9411822 -4.0107789 8.0325823
512 3 6.950264 -3.8337941 7.8298979
513 3 6.9077402 -3.6366561 7.5885902
514 3 7.0365472 -3.575131 7.3475819
515 3 7.0446148 -3.412339 7.0882201
516 3 7.035428 -3.1843669 6.920817
517 3 7.045876 -3.0381019 6.6662231
518 3 7.1141172 -2.8434552 6.476624
519 3 7.1248078 -2.659813 6.22299
520 3 7.1738401 -2.487561 5.9972902
521 3 7.1249809 -2.2302899 5.872912
522 3 7.2376452 -2.1401429 5.6100798
523 3 7.1313839 -1.864966 5.4768968
524 3 7.169436 -1.7238701 5.2728639
525 3 7.2012348 -1.567379 5.0638032
526 3 7.1625199 -1.317381 4.862105
527 3 7.203248 -1.14099 4.6417041
528 3 7.2197881 -0.9913716 4.4092598
529 3 7.2674909 -0.8601404 4.1936688
530 3 7.2978878 -0.6654992 3.912324
531 3 7.2364011 -0.4430623 3.7869671
532 3 7.2359491 -0.2196965 3.6336391
533 3 7.3373551 -0.0850606 3.3382671
534 3 7.2127752 0.1471629 3.178524
535 3 7.2686472 0.3860812 3.001529
536 3 7.2087851 0.6112018 2.8116241
537 3 7.2028408 0.8352466 2.65026
538 3 7.1908588 1.096736 2.510531
539 3 7.1186929 1.2891901 2.326859
540 3 7.1690722 1.5206601 2.1302021
541 3 7.099997 1.697435 1.976803
542 3 7.1623249 1.907653 1.741504
543 3 7.2009778 2.0811839 1.522442
544 3 7.173409 2.2257741 1.2571761
545 3 7.1922078 2.382736 1.073174
546 3 7.2222071 2.6331311 0.8491106
547 3 7.279891 2.7430871 0.5775776
548 3 7.345891 2.802625 0.3733187
549 3 7.4409199 2.855239 0.1121168
550 3 7.5378022 3.0145869 -0.1232462
551 3 7.5759282 3.1282499 -0.3956461
552 3 7.5972452 3.3324659 -0.6064596
553 3 7.6097679 3.533901 -0.7852927
554 3 7.6187811 3.6757691 -0.9521132
555 3 7.643816 3.852949 -1.233899
556 3 7.6067872 4.0692802 -1.379926
557 3 7.6570382 4.2962642 -1.598693
558 3 7.6201372 4.5122752 -1.697762
559 3 7.6332612 4.7069788 -1.909354
560 3 7.6526323 4.8602902 -2.2247269
561 3 7.69524 5.0497532 -2.319886
562 3 7.6749311 5.2973991 -2.408746
563 3 7.6958409 5.4903898 -2.630538
564 3 7.691433 5.7001319 -2.8576292
565 3 7.716259 5.8749752 -3.0819919
566 3 7.7145472 6.153142 -3.323108
567 3 7.7167521 6.3197608 -3.468657
568 3 7.7284022 6.5280051 -3.631429
569 3 7.7178579 6.6807719 -3.8788482
570 3 7.6972828 6.9426132 -4.084456
571 3 7.702137 7.2115131 -4.2061052
572 3 7.6313291 7.3756962 -4.3685708
573 3 7.589016 7.6291399 -4.4342051
574 3 7.506793 7.8675652 -4.6014848
575 3 7.500494 8.0577679 -4.730145
576 3 7.4242978 8.3598595 -4.842425
577 3 6.6020699 -5.2474198 9.1941786
578 3 6.6304188 -5.095366 8.9626218
579 3 6.6318712 -4.84165 8.7753678
580 3 6.6179409 -4.6424508 8.5432873
581 3 6.627861 -4.4532838 8.3282738
582 3 6.679451 -4.2549749 8.1538582
583 3 6.6673188 -4.0949082 7.9701972
584 3 6.6837621 -3.935755 7.736507
585 3 6.7497659 -3.797282 7.51194
586 3 6.728261 -3.646672 7.2833471
587 3 6.718112 -3.4624729 6.9768548
588 3 6.7901731 -3.2495921 6.8213158
589 3 6.8277478 -3.159924 6.5587578
590 3 6.8450928 -2.961371 6.3383889
591 3 6.8748122 -2.774868 6.1351552
592 3 6.908555 -2.5884271 5.8813282
593 3 6.9198772 -2.400239 5.6990319
594 3 6.911458 -2.1351171 5.5707979
595 3 6.919293 -1.957673 5.3788128
596 3 6.943678 -1.798506 5.1104779
597 3 6.961318 -1.663455 4.950263
598 3 6.906891 -1.4550461 4.7221189
599 3 7.0059609 -1.286902 4.4782548
600 3 6.9606882 -1.109921 4.3415089
601 3 6.9976932 -0.9302068 4.0540199
602 3 7.0128198 -0.7470899 3.873204
603 3 7.0269952 -0.5532061 3.6497851
604 3 7.021946 -0.382298 3.432967
605 3 7.0864639 -0.1458402 3.269114
606 3 7.1303372 0.0151629 3.0086811
607 3 7.0204701 0.2767444 2.929949
608 3 7.0539842 0.4822135 2.6410489
609 3 7.0198431 0.6978889 2.5227731
610 3 6.979992 0.9176478 2.354996
611 3 6.9115492 1.185186 2.2245109
612 3 6.9034072 1.37125 2.0193
613 3 6.95076 1.588972 1.817343
614 3 6.9264632 1.779588 1.655342
615 3 6.9243188 1.956655 1.434184
616 3 6.9746518 2.161346 1.229264
617 3 6.9744802 2.268276 0.9458036
618 3 7.0476141 2.4999981 0.7015018
619 3 7.0086241 2.5985899 0.4956656
620 3 7.176713 2.6095419 0.2295265
621 3 7.2448411 2.7871931 -0.0070019
622 3 7.2681718 2.90802 -0.2480707
623 3 7.3295412 3.03619 -0.4834719
624 3 7.3805509 3.1723149 -0.7064581
625 3 7.3750482 3.3850761 -0.9230414
626 3 7.3318958 3.593679 -1.0921871
627 3 7.3959489 3.7674229 -1.277392
628 3 7.4133902 4.0060382 -1.4837901
629 3 7.3684721 4.217063 -1.640258
630 3 7.3669949 4.4131198 -1.799245
631 3 7.3588491 4.6801911 -1.976441
632 3 7.4219752 4.869565 -2.1822269
633 3 7.4434862 5.0254679 -2.451823
634 3 7.406765 5.1785851 -2.6078391
635 3 7.4614382 5.4198599 -2.7410331
636 3 7.470223 5.6243968 -2.9336792
637 3 7.4806309 5.8104382 -3.1689351
638 3 7.4580851 5.996583 -3.4205029
639 3 7.5050869 6.2027741 -3.6236789
640 3 7.4592748 6.4596572 -3.808707
641 3 7.4799772 6.597126 -3.997699
642 3 7.4576121 6.8466792 -4.1394339
643 3 7.4374342 7.0402851 -4.330791
644 3 7.3967352 7.2555542 -4.499198
645 3 7.3507099 7.5444122 -4.599895
646 3 7.3765049 7.6836472 -4.802649
647 3 7.2733622 7.9463668 -4.9019332
648 3 7.2296972 8.1739311 -5.0398531
649 3 6.368475 -5.280539 9.0399961
650 3 6.3053599 -5.0941362 8.8751402
651 3 6.348865 -4.908135 8.6863852
652 3 6.3988142 -4.7173138 8.5147572
653 3 6.4031382 -4.545599 8.2409983
654 3 6.399405 -4.334662 8.0985403
655 3 6.388186 -4.1978588 7.8615088
656 3 6.4209552 -3.998271 7.6611848
657 3 6.4447222 -3.8327341 7.4220763
658 3 6.51718 -3.7575171 7.2090578
659 3 6.5762792 -3.529053 6.9592072
660 3 6.5236168 -3.3936069 6.6892209
661 3 6.5666828 -3.2418981 6.527844
662 3 6.6278582 -3.0831671 6.281353
663 3 6.663662 -2.836392 6.0334482
664 3 6.6654172 -2.6989181 5.815845
665 3 6.691721 -2.5131569 5.5696149
666 3 6.7028342 -2.2576931 5.399858
667 3 6.7221251 -2.1322851 5.205689
668 3 6.7341619 -1.956015 4.9934212
669 3 6.75597 -1.7541781 4.7769342
670 3 6.772595 -1.625531 4.5760999
671 3 6.7582922 -1.450343 4.3162198
672 3 6.7733202 -1.218897 4.218451
673 3 6.7859202 -1.065218 3.959256
674 3 6.7605582 -0.9284636 3.785275
675 3 6.8341551 -0.6993508 3.5392039
676 3 6.860837 -0.4500585 3.320113
677 3 6.8794642 -0.2992845 3.118279
678 3 6.8422298 -0.0631452 2.9459382
679 3 6.8604532 0.1591716 2.723157
680 3 6.7568989 0.3325191 2.5645511
681 3 6.8086758 0.5646319 2.406081
682 3 6.7096219 0.8150783 2.2420011
683 3 6.7052541 1.039888 2.0899551
684 3 6.7024141 1.209692 1.887961
685 3 6.6808172 1.4527951 1.710835
686 3 6.737145 1.637924 1.4899121
687 3 6.7640352 1.785818 1.219831
688 3 6.714756 2.0083649 1.0508831
689 3 6.7242799 2.1847639 0.8787584
690 3 6.8244062 2.307308 0.5956507
691 3 6.834353 2.4536491 0.3786383
692 3 6.922917 2.544363 0.1203117
693 3 6.989689 2.704093 -0.1166897
694 3 7.067843 2.745414 -0.3937864
695 3 7.1459298 2.927917 -0.6053782
696 3 7.1818991 3.082716 -0.8086615
697 3 7.164959 3.329423 -1.005174
698 3 7.1848512 3.501874 -1.2315021
699 3 7.2232099 3.659719 -1.453189
700 3 7.135808 3.878517 -1.5871381
701 3 7.1349092 4.1010051 -1.834119
702 3 7.134285 4.375968 -1.995973
703 3 7.1378522 4.579082 -2.1129899
704 3 7.227561 4.7583332 -2.3352139
705 3 7.1822438 4.9272952 -2.531611
706 3 7.1827588 5.0984468 -2.7398141
707 3 7.2186298 5.307991 -2.9186052
708 3 7.2418141 5.5396271 -3.095952
709 3 7.272202 5.681161 -3.3036871
710 3 7.2384362 5.935205 -3.5009761
711 3 7.2817292 6.0681109 -3.7416601
712 3 7.252554 6.2930222 -3.852767
713 3 7.2389779 6.5187912 -4.057828
714 3 7.2266388 6.7410832 -4.27914
715 3 7.1947789 6.9293972 -4.481978
716 3 7.1602249 7.2118368 -4.5468302
717 3 7.1086659 7.4046822 -4.780932
718 3 7.1026878 7.627861 -4.886724
719 3 7.1578999 7.754201 -5.0976572
720 3 6.990912 8.0589199 -5.1777811
721 3 6.0517902 -5.2505961 9.0576878
722 3 6.0651889 -5.1150708 8.8039265
723 3 6.0421028 -4.9010282 8.6469851
724 3 6.0786018 -4.7478471 8.374094
725 3 6.1122522 -4.6133619 8.2146034
726 3 6.207726 -4.503232 7.9727192
727 3 6.167891 -4.287302 7.7648211
728 3 6.161211 -4.1144338 7.609848
729 3 6.2538881 -3.9646822 7.3228979
730 3 6.2473569 -3.840935 7.135849
731 3 6.2926231 -3.6782561 6.926613
732 3 6.3218842 -3.5791669 6.6847282
733 3 6.2703962 -3.290431 6.4734741
734 3 6.3512979 -3.116864 6.1578021
735 3 6.3864832 -2.9045452 5.958346
736 3 6.409678 -2.759938 5.7358361
737 3 6.4287992 -2.5821371 5.5668402
738 3 6.4213782 -2.411921 5.2735162
739 3 6.5531369 -2.3135231 5.017642
740 3 6.510222 -2.0809009 4.835876
741 3 6.5280652 -1.950074 4.585073
742 3 6.5743809 -1.7696231 4.4221678
743 3 6.5687762 -1.5680601 4.1974249
744 3 6.548728 -1.39606 4.0351319
745 3 6.54423 -1.123173 3.848218
746 3 6.5784149 -1.0186239 3.6108899
747 3 6.6025071 -0.8157563 3.4465981
748 3 6.6317349 -0.6129766 3.2459021
749 3 6.6201501 -0.3831544 3.105943
750 3 6.6376901 -0.1929612 2.841138
751 3 6.627491 -0.0016789 2.6018601
752 3 6.620348 0.2581477 2.5187111
753 3 6.5385041 0.5041709 2.3074391
754 3 6.5569101 0.6968474 2.1407249
755 3 6.52034 0.9002204 1.950387
756 3 6.5085283 1.106338 1.7655831
757 3 6.6094332 1.292312 1.498374
758 3 6.5998101 1.493659 1.318629
759 3 6.5475092 1.668811 1.117487
760 3 6.525446 1.846735 0.9177294
761 3 6.577034 2.0514669 0.6828766
762 3 6.5288029 2.1947739 0.4430485
763 3 6.630179 2.26003 0.2371588
764 3 6.6554861 2.4723451 -0.003521
765 3 6.7941942 2.517375 -0.27633
766 3 6.861279 2.645582 -0.5045633
767 3 6.8920522 2.8037789 -0.7538767
768 3 6.926713 2.97134 -0.9513178
769 3 6.9309182 3.202575 -1.1242909
770 3 6.922574 3.369813 -1.35778
771 3 6.8977462 3.574121 -1.52571
772 3 6.94205 3.7896881 -1.709054
773 3 6.8787752 4.052835 -1.915341
774 3 6.9188118 4.2374892 -2.102174
775 3 6.898346 4.538589 -2.2281809
776 3 6.878718 4.6935859 -2.4142289
777 3 6.8748002 4.8747902 -2.6220961
778 3 6.99544 5.0389652 -2.850268
779 3 6.988503 5.2412639 -3.0275011
780 3 6.9749608 5.442348 -3.2228539
781 3 6.9304972 5.6157971 -3.38837
782 3 6.9571252 5.8090091 -3.585166
783 3 6.9893842 6.0324702 -3.798034
784 3 6.982604 6.235178 -3.982797
785 3 6.98028 6.4182329 -4.1552129
786 3 6.9757242 6.6543379 -4.3657451
787 3 6.9270582 6.886981 -4.4937721
788 3 6.9221058 7.0616412 -4.6719709
789 3 6.836462 7.2901931 -4.8257909
790 3 6.9060998 7.511848 -5.048615
791 3 6.8417402 7.6651168 -5.2371931
792 3 6.870587 7.8602862 -5.385839
793 3 5.7498751 -5.2902231 8.9634524
794 3 5.767642 -5.0817728 8.7974215
795 3 5.773829 -4.906384 8.5774231
796 3 5.8458538 -4.848301 8.3255997
797 3 5.8765588 -4.689663 8.14676
798 3 5.88232 -4.480196 7.926311
799 3 5.8844142 -4.3596521 7.7029562
800 3 5.965447 -4.2775059 7.4465671
801 3 5.9523358 -4.0552621 7.2798729
802 3 5.9869472 -3.87299 7.0067868
803 3 6.0485449 -3.6996451 6.8286672
804 3 6.0511661 -3.54634 6.5415201
805 3 6.0054712 -3.340981 6.375566
806 3 6.1232672 -3.1369901 6.1043859
807 3 6.108758 -2.980706 5.926055
808 3 6.1492758 -2.830534 5.6499028
809 3 6.177773 -2.7170639 5.4308672
810 3 6.2229052 -2.514884 5.2286163
811 3 6.2370348 -2.3503001 4.9917068
812 3 6.271277 -2.214339 4.6809469
813 3 6.3029771 -2.04039 4.5311022
814 3 6.3662729 -1.891148 4.2711568
815 3 6.3114171 -1.687182 4.1468
816 3 6.2959342 -1.3890981 3.939776
817 3 6.3519669 -1.227122 3.7886629
818 3 6.3019219 -1.021464 3.550735
819 3 6.3901472 -0.8847318 3.273762
820 3 6.3543 -0.6629376 3.17928
821 3 6.414577 -0.4574456 2.966964
822 3 6.4237032 -0.3135133 2.719378
823 3 6.329186 -0.0376363 2.551028
824 3 6.3490882 0.1247859 2.388104
825 3 6.4067068 0.3251185 2.189332
826 3 6.3762989 0.5209765 1.94673
827 3 6.2850938 0.770225 1.787076
828 3 6.3040009 1.019107 1.6291451
829 3 6.4015312 1.159421 1.3483861
830 3 6.2999668 1.370269 1.160745
831 3 6.358522 1.498641 0.99152
832 3 6.339715 1.74588 0.7551298
833 3 6.3922281 1.865106 0.5648175
834 3 6.4144368 1.996444 0.3667965
835 3 6.4310732 2.2492039 0.0976963
836 3 6.4965749 2.2938459 -0.1156473
837 3 6.5243402 2.4500461 -0.3925867
838 3 6.5718179 2.594718 -0.5910654
839 3 6.6645251 2.6733129 -0.8247938
840 3 6.6561342 2.964525 -0.9843664