ITEM: TIMESTEP
641
ITEM: NUMBER OF ATOMS
85964
ITEM: BOX BOUNDS pp pp pp
-15.085 15.085
-15.085 15.085
-15.085 15.085
ITEM: ATOMS x y z type id
-12.7168703 -4.7668739 -2.1471191 3 1
-12.4834996 -4.7434392 -2.1964121 3 2
-12.1992903 -4.93749 -2.1457491 3 3
-11.9435102 -5.0959172 -1.996703 3 4
-11.7149601 -5.1685772 -1.994138 3 5
-11.4658404 -5.2693482 -1.871791 3 6
-11.2910004 -5.4739042 -1.73113 3 7
-11.0989599 -5.590025 -1.565616 3 8
-10.86086 -5.7605992 -1.545278 3 9
-10.6062699 -5.839027 -1.371491 3 10
-10.3597603 -5.9169642 -1.2171281 3 11
-10.1436005 -6.05374 -1.123803 3 12
-9.9035044 -6.1359201 -1.040448 4 13
-9.643466 -6.2645321 -0.948558 4 14
-9.4896574 -6.3394928 -0.780158 4 15
-9.200839 -6.4407559 -0.7323637 4 16
-8.9751348 -6.5263958 -0.478713 4 17
-8.7727614 -6.5598531 -0.3391447 4 18
-8.5443678 -6.7559591 -0.2744761 4 19
-8.3247309 -6.843102 -0.3261061 4 20
-8.1221552 -6.917963 -0.0895128 4 21
-7.852191 -7.0470748 -0.0606356 4 22
-7.592587 -7.1885452 0.1138945 4 23
-7.368382 -7.2714958 0.1535158 4 24
-7.1139059 -7.421072 0.2887526 3 25
-6.932582 -7.5114041 0.4825964 3 26
-6.636395 -7.521133 0.6002913 3 27
-6.4273639 -7.6257062 0.7585859 3 28
-6.1642208 -7.816238 0.7285357 3 29
-5.9811002 -7.9295502 0.6698447 3 30
-5.7027741 -8.0214787 0.5860491 3 31
-5.4714222 -8.1819897 0.7891016 3 32
-5.2586289 -8.2366619 0.8767348 3 33
-5.0201302 -8.4101772 0.8943052 3 34
-4.7172971 -8.510767 0.955472 3 35
-4.4672642 -8.6523419 1.055737 3 36
-4.262856 -8.7044811 1.210677 4 37
-3.9546362 -8.7743912 1.273023 4 38
-3.7064481 -8.9157162 1.361588 4 39
-3.5028861 -9.0000343 1.4698611 4 40
-3.3240781 -9.0328579 1.6876151 4 41
-3.059875 -9.1352692 1.842456 4 42
-2.883183 -9.2191506 2.023654 4 43
-2.6562751 -9.3789158 2.064368 4 44
-2.3729651 -9.4528218 2.219013 4 45
-2.1306131 -9.5306988 2.341645 4 46
-1.880983 -9.6761971 2.357362 4 47
-1.655565 -9.7864266 2.4698341 4 48
-1.42079 -9.9544888 2.3612039 3 49
-1.174938 -10.0720596 2.429358 3 50
-0.9943696 -10.1691999 2.5006011 3 51
-0.7265453 -10.2710695 2.6808191 3 52
-0.4963169 -10.3133402 2.7679529 3 53
-0.2512951 -10.5181799 2.8037641 3 54
0.0392971 -10.6555004 2.876389 3 55
0.3194828 -10.7247 2.993427 3 56
0.504961 -10.8001204 2.96312 3 57
0.7939625 -10.9435702 3.0160811 3 58
1.011755 -11.0853596 2.9913312 3 59
1.279148 -11.1644802 3.0310731 3 60
1.524645 -11.3320103 3.1127219 4 61
1.714945 -11.4521303 3.1606331 4 62
1.979961 -11.5956898 3.21801 4 63
2.2205491 -11.7100697 3.2517281 4 64
2.488235 -11.85392 3.3184781 4 65
2.7448521 -11.9545604 3.3437631 4 66
2.96044 -12.0410995 3.462543 4 67
3.1895499 -12.1804304 3.553284 4 68
3.411083 -12.2400999 3.619453 4 69
3.666857 -12.4105101 3.5459121 4 70
3.955399 -12.5385103 3.5390661 4 71
4.1414452 -12.6617899 3.5553971 4 72
-12.6556196 -4.572453 -2.034322 3 73
-12.3725701 -4.6223068 -2.0156031 3 74
-12.1175203 -4.7981382 -2.035609 3 75
-11.8940296 -4.8681598 -1.951282 3 76
-11.6668501 -4.9749012 -1.818118 3 77
-11.4208298 -5.15168 -1.778459 3 78
-11.1704798 -5.2474961 -1.667485 3 79
-10.96029 -5.3936181 -1.5859881 3 80
-10.75914 -5.5151859 -1.481378 3 81
-10.5058699 -5.6162591 -1.410995 3 82
-10.2794504 -5.6927338 -1.205026 3 83
-10.04949 -5.7939592 -1.144029 3 84
-9.8074961 -5.8913898 -1.063466 4 85
-9.529645 -6.0048451 -0.9480754 4 86
-9.3567362 -6.1231232 -0.8170633 4 87
-9.1377726 -6.1923499 -0.6824198 4 88
-8.8984938 -6.3106141 -0.5958681 4 89
-8.6820288 -6.4149609 -0.4527578 4 90
-8.4015055 -6.5486789 -0.2840834 4 91
-8.1854353 -6.653008 -0.2774878 4 92
-7.9547492 -6.7449069 -0.1350279 4 93
-7.7587099 -6.8343449 -0.0057688 4 94
-7.519414 -6.948135 0.0608587 4 95
-7.2742591 -7.07793 0.1303892 4 96
-7.0446119 -7.1893601 0.2706957 3 97
-6.8278718 -7.3215919 0.3940306 3 98
-6.5771842 -7.3451228 0.5433016 3 99
-6.3041549 -7.5148492 0.6188745 3 100
-6.0397811 -7.5991211 0.6288805 3 101
-5.7864399 -7.7054019 0.6331129 3 102
-5.5516029 -7.8361068 0.6830072 3 103
-5.3450871 -7.8816948 0.6945372 3 104
-5.1282859 -8.1247387 0.7687387 3 105
-4.8802128 -8.1722183 0.9023256 3 106
-4.603209 -8.2880974 0.9762698 3 107
-4.3841801 -8.3641453 1.026839 3 108
-4.1328259 -8.5342217 1.121966 4 109
-3.8768102 -8.6321888 1.152822 4 110
-3.622572 -8.7604943 1.310472 4 111
-3.4525831 -8.7629528 1.512378 4 112
-3.1127219 -8.893261 1.640206 4 113
-3.0007 -8.933672 1.85122 4 114
-2.735893 -9.0532112 1.872431 4 115
-2.5461481 -9.1730652 2.0348201 4 116
-2.26442 -9.2144604 2.158684 4 117
-2.0234599 -9.3731423 2.155529 4 118
-1.786989 -9.523592 2.2517481 4 119
-1.562778 -9.6130066 2.3229261 4 120
-1.33074 -9.7161656 2.3770621 3 121
-1.098913 -9.9057922 2.2977359 3 122
-0.8489246 -9.9539108 2.4580701 3 123
-0.6282692 -10.0873699 2.5314951 3 124
-0.3829708 -10.1929197 2.693497 3 125
-0.1347466 -10.3238897 2.7623041 3 126
0.1300106 -10.4540501 2.767505 3 127
0.4042149 -10.5215397 2.867393 3 128
0.6484604 -10.6339197 2.8925532 3 129
0.9538194 -10.7621203 2.989986 3 130
1.159206 -10.9179002 3.022419 3 131
1.319353 -11.0101604 3.130028 3 132
1.6238001 -11.10462 3.064997 4 133
1.891125 -11.2109003 3.1335139 4 134
2.083662 -11.3730698 3.147213 4 135
2.3332579 -11.4769802 3.2342911 4 136
2.6131339 -11.6570502 3.1862321 4 137
2.868528 -11.7534199 3.3117809 4 138
3.113344 -11.8237801 3.3658831 4 139
3.299381 -11.9503498 3.5364931 4 140
3.543875 -12.0699501 3.505564 4 141
3.837225 -12.1858902 3.6571059 4 142
4.0397 -12.3354101 3.5913849 4 143
4.2642708 -12.4543696 3.54546 4 144
-12.5312701 -4.379715 -1.937434 3 145
-12.3416901 -4.457047 -1.941403 3 146
-12.0214701 -4.5705152 -1.872277 3 147
-11.7440205 -4.6201358 -1.83261 3 148
-11.5507298 -4.8078609 -1.7665891 3 149
-11.3391199 -4.8497282 -1.682675 3 150
-11.1054001 -5.0033021 -1.612191 3 151
-10.8182097 -5.139153 -1.494817 3 152
-10.6928797 -5.2443681 -1.4295661 3 153
-10.43822 -5.3952308 -1.315949 3 154
-10.1476202 -5.45577 -1.2794581 3 155
-9.8856058 -5.5585919 -1.159963 3 156
-9.6375361 -5.6840382 -1.112506 4 157
-9.4445906 -5.7404862 -1.008822 4 158
-9.2406263 -5.8795572 -0.8416682 4 159
-8.9885378 -5.952858 -0.6978636 4 160
-8.7568999 -6.0659118 -0.6268301 4 161
-8.5400667 -6.260622 -0.5325232 4 162
-8.3033152 -6.2679939 -0.3621531 4 163
-8.0984545 -6.3747559 -0.1962385 4 164
-7.909123 -6.5236869 -0.1322565 4 165
-7.6503358 -6.5687008 0.0367804 4 166
-7.408051 -6.7094541 0.0334234 4 167
-7.1096072 -6.7965069 0.1611719 4 168
-6.8939582 -6.878695 0.2790041 3 169
-6.638732 -7.0439219 0.3721037 3 170
-6.3763952 -7.0900059 0.5042238 3 171
-6.212306 -7.2557068 0.5575457 3 172
-5.899396 -7.3758111 0.5743532 3 173
-5.6674018 -7.4699359 0.5232115 3 174
-5.4418741 -7.5609422 0.586587 3 175
-5.2276969 -7.7110982 0.677186 3 176
-4.9787122 -7.8349109 0.710084 3 177
-4.739399 -7.9540038 0.8254977 3 178
-4.5178662 -8.0096798 0.940877 3 179
-4.2319131 -8.1745071 0.9976226 3 180
-4.017046 -8.2795963 1.1366381 4 181
-3.7560251 -8.3550873 1.153724 4 182
-3.5271781 -8.4691124 1.280154 4 183
-3.2937069 -8.5950814 1.357083 4 184
-3.0999701 -8.617302 1.57668 4 185
-2.8396052 -8.7258702 1.688664 4 186
-2.615252 -8.8606874 1.811473 4 187
-2.3462119 -8.9239846 1.927634 4 188
-2.159132 -9.0517979 1.990845 4 189
-1.883207 -9.1606216 2.016454 4 190
-1.666765 -9.2483997 2.106874 4 191
-1.4196 -9.4150944 2.173959 4 192
-1.22592 -9.4976597 2.242821 3 193
-0.967352 -9.6263905 2.2973721 3 194
-0.6673565 -9.7698288 2.349062 3 195
-0.465395 -9.8407116 2.4845951 3 196
-0.2285805 -9.940218 2.5370941 3 197
0.0344257 -10.1114101 2.686842 3 198
0.2827625 -10.1824198 2.719204 3 199
0.4999065 -10.2748404 2.8146711 3 200
0.8018436 -10.4025002 2.889355 3 201
1.058334 -10.5527802 2.98699 3 202
1.2956391 -10.6200304 2.977335 3 203
1.5264111 -10.7295399 3.0719759 3 204
1.739126 -10.8380299 3.0734501 4 205
1.980894 -11.0091696 3.086092 4 206
2.2248759 -11.1551504 3.097883 4 207
2.4974079 -11.2532597 3.1118851 4 208
2.6946869 -11.4199896 3.104382 4 209
2.9767252 -11.5260296 3.1983221 4 210
3.2423689 -11.6026802 3.255856 4 211
3.471571 -11.7248402 3.4205041 4 212
3.70413 -11.84439 3.483244 4 213
3.928303 -11.9422998 3.563412 4 214
4.2014518 -12.0185404 3.547956 4 215
4.3970432 -12.1589403 3.623718 4 216
-12.4101401 -4.1035481 -1.832801 3 217
-12.1970701 -4.1720891 -1.806382 3 218
-11.9153404 -4.306767 -1.870471 3 219
-11.6898203 -4.3846359 -1.723413 3 220
-11.4962797 -4.5010739 -1.6600011 3 221
-11.2707901 -4.6249142 -1.5137611 3 222
-10.9789896 -4.7599092 -1.507039 3 223
-10.7453699 -4.8725338 -1.5115251 3 224
-10.5461903 -4.9873328 -1.390145 3 225
-10.2689896 -5.0908718 -1.309161 3 226
-10.0056896 -5.1745219 -1.279614 3 227
-9.74825 -5.294075 -1.295741 3 228
-9.5811415 -5.422338 -1.073442 4 229
-9.3064184 -5.5440851 -1.0118231 4 230
-9.0877295 -5.615675 -0.9579688 4 231
-8.8714038 -5.736423 -0.7846346 4 232
-8.6493836 -5.7739959 -0.6748286 4 233
-8.3561621 -5.9467412 -0.5746737 4 234
-8.1825457 -6.0806751 -0.403554 4 235
-8.0024443 -6.1487289 -0.2737722 4 236
-7.7601118 -6.232388 -0.0952406 4 237
-7.514689 -6.3685022 -0.0466204 4 238
-7.227519 -6.4806419 0.0336657 4 239
-7.0219579 -6.581635 0.100234 4 240
-6.7874232 -6.6617532 0.2388029 3 241
-6.537623 -6.782145 0.3453207 3 242
-6.2506409 -6.88447 0.384799 3 243
-6.0504422 -6.971127 0.5171824 3 244
-5.8357868 -7.146214 0.5313101 3 245
-5.5468312 -7.248796 0.5586824 3 246
-5.335793 -7.3352318 0.4661303 3 247
-5.0802398 -7.5042629 0.5659056 3 248
-4.7908311 -7.5900989 0.696929 3 249
-4.5900021 -7.6668358 0.7463217 3 250
-4.4069419 -7.7433548 0.898591 3 251
-4.1105499 -7.888567 0.9931422 3 252
-3.89345 -8.0183125 1.036038 4 253
-3.614964 -8.1379108 1.158883 4 254
-3.385103 -8.1696377 1.206027 4 255
-3.149538 -8.3274307 1.4151241 4 256
-2.914772 -8.3922711 1.4662431 4 257
-2.7140329 -8.5133591 1.609782 4 258
-2.471493 -8.5889235 1.701245 4 259
-2.238359 -8.6715775 1.743699 4 260
-2.0592401 -8.8311415 1.898072 4 261
-1.78158 -8.9069672 1.978622 4 262
-1.534075 -9.1123676 1.97199 4 263
-1.287661 -9.1174984 2.199203 4 264
-1.042978 -9.2828007 2.1923471 3 265
-0.8530942 -9.3779221 2.2558441 3 266
-0.5951099 -9.5237828 2.350708 3 267
-0.3050861 -9.6187153 2.3791621 3 268
-0.0799904 -9.7234326 2.5501561 3 269
0.1898098 -9.7982197 2.6142631 3 270
0.3633862 -9.9732762 2.7530029 3 271
0.5987206 -10.0031004 2.7536061 3 272
0.8805752 -10.1747599 2.9014052 3 273
1.1575069 -10.2679196 2.994308 3 274
1.376917 -10.40732 3.0106659 3 275
1.624926 -10.4889803 2.913506 3 276
1.862013 -10.6099901 3.039005 4 277
2.124769 -10.7879105 3.002239 4 278
2.2879009 -10.9377804 3.0028501 4 279
2.6087439 -11.0332804 3.0277939 4 280
2.897223 -11.1545496 3.080261 4 281
3.1092279 -11.2855301 3.104111 4 282
3.367666 -11.3897801 3.1924059 4 283
3.598223 -11.4871702 3.3365779 4 284
3.794374 -11.6077099 3.4023299 4 285
4.0281811 -11.6883297 3.449312 4 286
4.341228 -11.7938605 3.609144 4 287
4.5353012 -11.9047604 3.526026 4 288
-12.3403101 -3.8020251 -1.815099 3 289
-12.1068802 -3.9509302 -1.725533 3 290
-11.8637304 -4.0375962 -1.72231 3 291
-11.57197 -4.1393638 -1.771142 3 292
-11.39468 -4.2536068 -1.555854 3 293
-11.1813498 -4.377182 -1.51106 3 294
-10.8684502 -4.4836712 -1.443326 3 295
-10.58317 -4.6597748 -1.4641921 3 296
-10.3697596 -4.7398548 -1.4068591 3 297
-10.1513796 -4.8492718 -1.329484 3 298
-9.8841582 -4.9631062 -1.271972 3 299
-9.6501913 -5.0596328 -1.207799 3 300
-9.4392729 -5.1723208 -1.161706 4 301
-9.2539053 -5.222467 -0.9632808 4 302
-9.0189047 -5.4018941 -0.8655272 4 303
-8.7495585 -5.481812 -0.7673826 4 304
-8.5183649 -5.6330719 -0.7337217 4 305
-8.2358236 -5.7272511 -0.6448832 4 306
-8.0526476 -5.8414632 -0.446929 4 307
-7.9078532 -5.876801 -0.1966143 4 308
-7.6015272 -6.0116839 -0.2387629 4 309
-7.3920512 -6.0812302 -0.0731497 4 310
-7.1512981 -6.2117481 -0.0344305 4 311
-6.838552 -6.3353081 0.0542479 4 312
-6.605115 -6.4031978 0.1438684 3 313
-6.4481039 -6.5321431 0.2456465 3 314
-6.1462002 -6.6141758 0.3743162 3 315
-5.8598252 -6.7469039 0.4598207 3 316
-5.6914501 -6.8533312 0.435607 3 317
-5.4358502 -6.9812852 0.483613 3 318
-5.2497749 -7.1397018 0.5799456 3 319
-4.890659 -7.247272 0.5756845 3 320
-4.7247029 -7.3444691 0.6877584 3 321
-4.4720898 -7.4036121 0.7564116 3 322
-4.235291 -7.5317569 0.8358316 3 323
-3.95508 -7.6260338 0.8700838 3 324
-3.759233 -7.782404 1.017625 4 325
-3.5649431 -7.8783132 1.109269 4 326
-3.300417 -7.937111 1.242343 4 327
-3.0767801 -8.0684986 1.348313 4 328
-2.837133 -8.175911 1.4514721 4 329
-2.5396421 -8.2931957 1.520082 4 330
-2.3607011 -8.3003159 1.7234811 4 331
-2.0965519 -8.4273014 1.763209 4 332
-1.849213 -8.569088 1.864923 4 333
-1.621876 -8.6865502 1.8939332 4 334
-1.366344 -8.8066159 1.959662 4 335
-1.146667 -8.9038564 2.104008 4 336
-0.9192314 -9.0489483 2.1436181 3 337
-0.6616154 -9.1652527 2.198709 3 338
-0.4486561 -9.2901974 2.270149 3 339
-0.1774044 -9.3871842 2.3584411 3 340
0.0352592 -9.533001 2.427546 3 341
0.29492 -9.6547184 2.5320239 3 342
0.5409622 -9.6869488 2.674053 3 343
0.7918339 -9.8514844 2.6913791 3 344
1.025183 -9.9546432 2.7997589 3 345
1.2213121 -10.0077696 2.927984 3 346
1.517851 -10.1289797 2.974022 3 347
1.7690491 -10.2576704 2.9206852 3 348
2.017508 -10.4004097 2.877789 4 349
2.2761669 -10.5174303 2.929508 4 350
2.477629 -10.6869498 2.909498 4 351
2.7363611 -10.8209601 2.916904 4 352
2.983667 -10.8983298 3.0135231 4 353
3.2622969 -11.0078897 3.0911641 4 354
3.4667239 -11.1607504 3.1870101 4 355
3.713888 -11.2362299 3.2546201 4 356
3.920868 -11.3035002 3.3969021 4 357
4.170763 -11.4652996 3.5201931 4 358
4.434278 -11.5476599 3.5387461 4 359
4.704473 -11.6429596 3.6250191 4 360
-12.1937304 -3.6186979 -1.684392 3 361
-11.9916 -3.6804869 -1.789676 3 362
-11.7554798 -3.8017621 -1.7078331 3 363
-11.5424204 -3.875319 -1.608756 3 364
-11.2601299 -4.0261779 -1.625319 3 365
-11.0235796 -4.1536899 -1.5670671 3 366
-10.7916298 -4.2400718 -1.5195951 3 367
-10.5480604 -4.3798518 -1.448718 3 368
-10.2700501 -4.496944 -1.355899 3 369
-10.0650797 -4.5850768 -1.278991 3 370
-9.8044062 -4.679596 -1.225322 3 371
-9.5975333 -4.763556 -1.13133 3 372
-9.3367071 -4.9143848 -1.08381 4 373
-9.0716295 -4.99861 -0.972106 4 374
-8.8887054 -5.0848961 -0.8452482 4 375
-8.6763487 -5.253922 -0.7703066 4 376
-8.3688727 -5.3800411 -0.7323999 4 377
-8.1703844 -5.4344669 -0.6102457 4 378
-7.9650832 -5.5737062 -0.4808798 4 379
-7.7519999 -5.592052 -0.3195581 4 380
-7.4675112 -5.797308 -0.2722025 4 381
-7.2243681 -5.9256502 -0.1899366 4 382
-6.997149 -5.9804402 -0.0694628 4 383
-6.7293458 -6.072329 0.0598555 4 384
-6.5307622 -6.1467781 0.1236315 3 385
-6.3207069 -6.238152 0.2708998 3 386
-6.0757322 -6.3512478 0.3485899 3 387
-5.8179469 -6.4914532 0.4981127 3 388
-5.516222 -6.588028 0.4840918 3 389
-5.3313432 -6.754993 0.4948092 3 390
-5.044178 -6.8373533 0.5476522 3 391
-4.844521 -6.915236 0.5640669 3 392
-4.5954652 -7.0568981 0.612855 3 393
-4.346117 -7.1935458 0.706254 3 394
-4.1558819 -7.3053932 0.7847719 3 395
-3.86694 -7.384254 0.8850318 3 396
-3.657377 -7.4949489 1.00488 4 397
-3.410295 -7.5804229 1.134494 4 398
-3.207932 -7.7597199 1.194774 4 399
-2.993639 -7.7807808 1.325541 4 400
-2.6804281 -7.888384 1.401076 4 401
-2.4325011 -7.9945998 1.502301 4 402
-2.198586 -8.1633568 1.563699 4 403
-1.991655 -8.1954422 1.700812 4 404
-1.7446541 -8.361969 1.792565 4 405
-1.485731 -8.5057583 1.856454 4 406
-1.247114 -8.5698605 1.980453 4 407
-1.0091439 -8.69166 2.0101049 4 408
-0.7977085 -8.8176861 2.1562321 3 409
-0.547823 -8.9634086 2.188385 3 410
-0.2700806 -9.0339527 2.2552171 3 411
-0.1116142 -9.1589069 2.321132 3 412
0.1741276 -9.2768965 2.297771 3 413
0.3803253 -9.3752499 2.523916 3 414
0.6248646 -9.5617962 2.485574 3 415
0.9091644 -9.6395436 2.555347 3 416
1.149191 -9.6763745 2.7379041 3 417
1.346617 -9.7748108 2.775856 3 418
1.628405 -9.9081268 2.8526572 3 419
1.861246 -10.0228901 2.863926 3 420
2.1586571 -10.1599302 2.8747772 4 421
2.33848 -10.2934199 2.837765 4 422
2.59429 -10.44345 2.9285952 4 423
2.849932 -10.5623904 2.8742982 4 424
3.1022279 -10.6374703 2.9406282 4 425
3.3697889 -10.7555104 3.10519 4 426
3.6224799 -10.95636 3.0939369 4 427
3.8330629 -10.9947796 3.2217901 4 428
4.0754032 -11.0798597 3.3254969 4 429
4.286047 -11.1368504 3.425165 4 430
4.5229168 -11.2593298 3.549644 4 431
4.701149 -11.3640604 3.637156 4 432
-12.1150799 -3.319387 -1.767079 3 433
-11.8863096 -3.431423 -1.813146 3 434
-11.64534 -3.5273299 -1.768947 3 435
-11.3786698 -3.647198 -1.692935 3 436
-11.1666803 -3.760674 -1.673259 3 437
-10.92054 -3.90691 -1.575734 3 438
-10.6717301 -3.997936 -1.497651 3 439
-10.4038201 -4.121429 -1.572248 3 440
-10.18715 -4.2438769 -1.4652031 3 441
-9.913417 -4.3228469 -1.342601 3 442
-9.6857577 -4.389709 -1.231084 3 443
-9.4634104 -4.5445099 -1.1265611 3 444
-9.2095251 -4.6594181 -1.107469 4 445
-8.971902 -4.803967 -0.9575396 4 446
-8.8112345 -4.8859062 -0.8473902 4 447
-8.4928408 -4.9992752 -0.8337584 4 448
-8.282918 -5.0948491 -0.7193842 4 449
-8.0333624 -5.198648 -0.6929674 4 450
-7.8190871 -5.3411579 -0.5592699 4 451
-7.5761061 -5.4405351 -0.4344282 4 452
-7.3591828 -5.5369029 -0.3058271 4 453
-7.1083522 -5.6340981 -0.2979822 4 454
-6.8921772 -5.7631569 -0.129487 4 455
-6.65409 -5.7744141 0.0798788 4 456
-6.3675099 -5.8795338 0.1248331 3 457
-6.1522622 -6.0333958 0.1845102 3 458
-5.9314332 -6.1672168 0.272069 3 459
-5.7159229 -6.238441 0.4090681 3 460
-5.4468022 -6.3535919 0.4769297 3 461
-5.1793561 -6.4845662 0.5038023 3 462
-4.950729 -6.6226692 0.4148035 3 463
-4.6872711 -6.6902099 0.5561056 3 464
-4.4408841 -6.817348 0.6535463 3 465
-4.2152228 -6.963812 0.7150869 3 466
-3.949326 -7.0597482 0.8132181 3 467
-3.750715 -7.1401672 0.8332815 3 468
-3.560297 -7.260952 1.0074511 4 469
-3.271317 -7.3205052 1.035504 4 470
-2.9765822 -7.4822202 1.095727 4 471
-2.855188 -7.561306 1.3115471 4 472
-2.5452771 -7.6296582 1.372128 4 473
-2.308027 -7.7867279 1.389598 4 474
-2.04545 -7.8496628 1.521663 4 475
-1.804989 -8.032217 1.614932 4 476
-1.6292271 -8.0939941 1.756055 4 477
-1.384554 -8.1983624 1.773395 4 478
-1.154825 -8.3598442 1.914449 4 479
-0.8457814 -8.4430218 1.988325 4 480
-0.6856861 -8.5531464 2.100667 3 481
-0.4280605 -8.7001229 2.1667299 3 482
-0.1699944 -8.8513356 2.228946 3 483
0.0501385 -8.9300976 2.273227 3 484
0.3278732 -9.0221806 2.29108 3 485
0.5739918 -9.1519222 2.3444669 3 486
0.7912292 -9.2677384 2.430141 3 487
1.086866 -9.3709736 2.5027151 3 488
1.3052811 -9.4342003 2.669771 3 489
1.47331 -9.6220227 2.654145 3 490
1.722477 -9.7081642 2.7875099 3 491
2.010534 -9.8225956 2.845116 3 492
2.249352 -9.943243 2.869606 4 493
2.4981821 -10.0590401 2.7968979 4 494
2.7442651 -10.2150602 2.860775 4 495
2.9513022 -10.3099604 2.924589 4 496
3.2206609 -10.3911104 3.0320401 4 497
3.452543 -10.5489903 3.0100591 4 498
3.6725581 -10.6844597 3.0784149 4 499
3.926538 -10.7213202 3.2159159 4 500
4.1663232 -10.8474398 3.2952459 4 501
4.4443379 -10.9772196 3.346153 4 502
4.6893831 -11.0357904 3.428036 4 503
4.881054 -11.1152802 3.547756 4 504
-11.9299098 -3.0882151 -1.845683 3 505
-11.7250796 -3.1915071 -1.733935 3 506
-11.5078802 -3.2933331 -1.713544 3 507
-11.2975397 -3.3911171 -1.7392611 3 508
-11.00278 -3.5239301 -1.717448 3 509
-10.76962 -3.638201 -1.636285 3 510
-10.5386496 -3.7608431 -1.5638761 3 511
-10.3034802 -3.9067212 -1.542396 3 512
-10.0357103 -3.992208 -1.470946 3 513
-9.7629118 -4.074265 -1.399882 3 514
-9.5568323 -4.1709518 -1.186648 3 515
-9.3879042 -4.2579522 -1.113107 3 516
-9.0703516 -4.3719368 -1.0640039 4 517
-8.8753406 -4.518085 -1.0010771 4 518
-8.6059084 -4.6150379 -0.937316 4 519
-8.3980646 -4.7532878 -0.8940326 4 520
-8.1279268 -4.820642 -0.7684183 4 521
-7.897225 -4.9482752 -0.7034312 4 522
-7.645495 -5.0138402 -0.5986853 4 523
-7.518229 -5.1555648 -0.4037981 4 524
-7.252408 -5.3280659 -0.4325399 4 525
-6.9975042 -5.3523541 -0.2935801 4 526
-6.742692 -5.4848209 -0.1641722 4 527
-6.5568862 -5.563469 -0.0350599 4 528
-6.2607589 -5.6552048 0.0263472 3 529
-6.0337 -5.80509 0.1217356 3 530
-5.7895522 -5.9314518 0.2532511 3 531
-5.5388322 -6.0884671 0.2264147 3 532
-5.296227 -6.1755562 0.4502115 3 533
-5.091188 -6.239799 0.4452238 3 534
-4.7986741 -6.3555341 0.452075 3 535
-4.5766769 -6.4333902 0.5696821 3 536
-4.3356109 -6.583437 0.7011137 3 537
-4.0800228 -6.679245 0.8090696 3 538
-3.8580612 -6.8156219 0.7359228 3 539
-3.583323 -6.9354272 0.8665228 3 540
-3.369829 -7.0136909 0.9618368 4 541
-3.1604061 -7.1254711 1.090608 4 542
-2.9358772 -7.2391782 1.100837 4 543
-2.6822431 -7.3314319 1.162122 4 544
-2.4010389 -7.4260831 1.353871 4 545
-2.215261 -7.5815411 1.357234 4 546
-1.998533 -7.6366039 1.5308681 4 547
-1.75659 -7.7671781 1.695279 4 548
-1.512444 -7.834621 1.790811 4 549
-1.2647441 -8.0020981 1.855796 4 550
-1.026035 -8.1036167 1.871181 4 551
-0.7600822 -8.1758232 2.041451 4 552
-0.539465 -8.3433991 2.0386951 3 553
-0.3154926 -8.4439488 2.1264651 3 554
-0.1131878 -8.4864426 2.2437651 3 555
0.1630325 -8.6891651 2.328979 3 556
0.4186096 -8.8057976 2.3047249 3 557
0.6926289 -8.9411698 2.3026769 3 558
0.9561672 -9.0862217 2.3537901 3 559
1.153442 -9.1660366 2.4646809 3 560
1.382605 -9.2633648 2.5329039 3 561
1.615919 -9.3610058 2.629982 3 562
1.878252 -9.4946423 2.6642351 3 563
2.155436 -9.5639363 2.740022 3 564
2.388556 -9.7102108 2.786053 4 565
2.617765 -9.871521 2.785645 4 566
2.9010452 -9.967598 2.7350941 4 567
3.1402111 -10.0563602 2.921923 4 568
3.384912 -10.1947603 2.90728 4 569
3.627085 -10.2902603 2.947746 4 570
3.860437 -10.4598704 2.9874712 4 571
4.0829701 -10.5019102 3.0602629 4 572
4.296341 -10.6458998 3.220089 4 573
4.5512872 -10.72048 3.273056 4 574
4.7863789 -10.8443098 3.3103449 4 575
5.0193272 -10.9207096 3.388443 4 576
-11.8765202 -2.861603 -1.813413 3 577
-11.6089297 -2.902794 -1.8049081 3 578
-11.3667898 -3.0768621 -1.690087 3 579
-11.1407805 -3.1520691 -1.718053 3 580
-10.9378902 -3.2103059 -1.7506761 3 581
-10.6153898 -3.450161 -1.751637 3 582
-10.4193401 -3.521648 -1.61288 3 583
-10.1726599 -3.623585 -1.477508 3 584
-9.9267702 -3.747818 -1.438424 3 585
-9.6593867 -3.8403002 -1.335631 3 586
-9.4098501 -3.9360522 -1.266515 3 587
-9.1751528 -4.0487371 -1.200881 3 588
-8.9928714 -4.1188412 -0.9741412 4 589
-8.7350226 -4.2742791 -0.979064 4 590
-8.50035 -4.3960252 -0.9984446 4 591
-8.2604075 -4.4815369 -0.8589984 4 592
-8.037982 -4.5878582 -0.8356867 4 593
-7.780324 -4.683281 -0.6978693 4 594
-7.5783949 -4.825336 -0.5080614 4 595
-7.33212 -4.9674802 -0.5515165 4 596
-7.1016679 -5.0095248 -0.4180288 4 597
-6.8308668 -5.1191621 -0.4018564 4 598
-6.6256418 -5.2317939 -0.2659216 4 599
-6.4129281 -5.3918738 -0.150054 4 600
-6.1211481 -5.4788318 -0.0989656 3 601
-5.8691492 -5.586504 0.0321684 3 602
-5.6351948 -5.6839352 0.1164732 3 603
-5.4148121 -5.8073349 0.2301359 3 604
-5.1573911 -5.8885522 0.2809267 3 605
-4.9060002 -5.9854222 0.3020239 3 606
-4.6700878 -6.091579 0.4515676 3 607
-4.4614091 -6.1848869 0.5930967 3 608
-4.2425628 -6.311626 0.6905336 3 609
-3.9597722 -6.4566398 0.7034483 3 610
-3.721195 -6.5334172 0.8148546 3 611
-3.4627111 -6.670898 0.8404932 3 612
-3.296947 -6.7617321 1.0308501 4 613
-3.0534949 -6.8479772 1.008906 4 614
-2.8208599 -6.980804 1.146569 4 615
-2.570822 -7.0455399 1.1779931 4 616
-2.344048 -7.1761279 1.318847 4 617
-2.0718329 -7.2928071 1.359582 4 618
-1.799896 -7.4122281 1.419137 4 619
-1.6078151 -7.4613042 1.5881781 4 620
-1.384203 -7.5987821 1.719859 4 621
-1.137098 -7.7244091 1.808074 4 622
-0.9013234 -7.8585572 1.901626 4 623
-0.6760025 -7.941452 1.946968 4 624
-0.4266357 -8.1096649 2.0209839 3 625
-0.2530308 -8.1950646 2.0870199 3 626
0.012167 -8.3418923 2.1987391 3 627
0.2889404 -8.4287472 2.279733 3 628
0.4836979 -8.5901032 2.3285921 3 629
0.7897816 -8.6759005 2.43434 3 630
1.0792789 -8.8256226 2.40028 3 631
1.26885 -8.899498 2.4534509 3 632
1.5470261 -9.0161877 2.5183811 3 633
1.791281 -9.0972424 2.5619531 3 634
2.041147 -9.2047749 2.6327031 3 635
2.2320311 -9.3415699 2.676533 3 636
2.5448251 -9.4466858 2.742945 4 637
2.7434161 -9.6259136 2.6956091 4 638
3.0003469 -9.6986523 2.6529131 4 639
3.2678511 -9.8501492 2.795033 4 640
3.4629541 -9.9495936 2.7835031 4 641
3.7160001 -10.10044 2.8881992 4 642
3.973429 -10.1846399 2.894928 4 643
4.220655 -10.3218298 2.939926 4 644
4.430296 -10.3967104 3.0624239 4 645
4.6980901 -10.4965801 3.1207769 4 646
4.967484 -10.6420098 3.1976969 4 647
5.1389451 -10.6385498 3.3015189 4 648
-11.7031203 -2.6884501 -2.0756309 3 649
-11.5312796 -2.6796551 -1.944037 3 650
-11.2259903 -2.7719419 -1.850757 3 651
-11.0330095 -2.9551722 -1.821988 3 652
-10.7778597 -3.0404451 -1.766021 3 653
-10.5678902 -3.1508451 -1.736089 3 654
-10.2638102 -3.267504 -1.646024 3 655
-10.0194798 -3.377476 -1.559924 3 656
-9.7891913 -3.4341131 -1.4368791 3 657
-9.5391722 -3.586988 -1.41783 3 658
-9.3388987 -3.6661279 -1.193826 3 659
-9.0844526 -3.77771 -1.087932 3 660
-8.8889494 -3.865911 -1.012462 4 661
-8.642066 -4.0305161 -0.9542438 4 662
-8.3689623 -4.148726 -0.970399 4 663
-8.1170969 -4.2529831 -0.9689094 4 664
-7.875846 -4.3313961 -0.8513022 4 665
-7.6763368 -4.4113288 -0.7098475 4 666
-7.4512301 -4.5373879 -0.5967132 4 667
-7.2570329 -4.675879 -0.5748073 4 668
-6.987761 -4.8140393 -0.5338221 4 669
-6.7524672 -4.9614512 -0.4583063 4 670
-6.4933362 -5.0833612 -0.3671522 4 671
-6.253767 -5.134016 -0.2209616 4 672
-5.9953108 -5.230927 -0.1455221 3 673
-5.7687888 -5.3251 -0.0643358 3 674
-5.536604 -5.44137 0.0224218 3 675
-5.2974639 -5.5967832 0.0418901 3 676
-5.0579472 -5.6410351 0.2299471 3 677
-4.7960849 -5.7908969 0.2694693 3 678
-4.5603242 -5.9200168 0.3171396 3 679
-4.3397012 -5.9396692 0.5529814 3 680
-4.1529198 -6.1007881 0.6075907 3 681
-3.859827 -6.1716838 0.6855536 3 682
-3.6088469 -6.2945399 0.7307901 3 683
-3.3322029 -6.4648462 0.8754264 3 684
-3.15415 -6.4747811 0.9422732 4 685
-2.8559362 -6.548038 1.056668 4 686
-2.679245 -6.6669789 1.2060191 4 687
-2.4638841 -6.7993531 1.157413 4 688
-2.1914201 -6.9335842 1.2907291 4 689
-1.977108 -7.0488548 1.437091 4 690
-1.7255401 -7.2089272 1.455899 4 691
-1.495808 -7.3216901 1.4945101 4 692
-1.234148 -7.406363 1.636508 4 693
-0.9743404 -7.5005989 1.729571 4 694
-0.7680206 -7.6333752 1.88046 4 695
-0.5151958 -7.726656 1.916076 4 696
-0.2937317 -7.8350868 2.0357389 3 697
-0.0896187 -7.921587 2.179594 3 698
0.1692638 -8.0851479 2.170867 3 699
0.3910007 -8.1497822 2.257524 3 700
0.6375065 -8.3079567 2.384532 3 701
0.8809358 -8.4217377 2.4437201 3 702
1.138191 -8.5417586 2.3434179 3 703
1.410833 -8.6520081 2.3746879 3 704
1.62277 -8.789156 2.478575 3 705
1.919504 -8.8473206 2.5661931 3 706
2.1410661 -9.0116615 2.555208 3 707
2.4322851 -9.0888519 2.6172011 3 708
2.6192839 -9.2372799 2.5504279 4 709
2.8666552 -9.3663635 2.6784439 4 710
3.1400089 -9.5281983 2.6977861 4 711
3.380491 -9.581379 2.731453 4 712
3.633421 -9.7323342 2.7463939 4 713
3.855165 -9.8413754 2.7701731 4 714
4.1166291 -9.9403286 2.85972 4 715
4.3869109 -10.0845804 2.9112402 4 716
4.5779782 -10.2179403 2.9729372 4 717
4.792675 -10.2598496 3.0344811 4 718
5.0672779 -10.3205099 3.1091311 4 719
5.328444 -10.4295302 3.213728 4 720
-11.5059405 -2.499866 -2.1840031 3 721
-11.3485203 -2.526453 -2.0847459 3 722
-11.15203 -2.568743 -2.0550151 3 723
-10.9325706 -2.7079661 -1.934314 3 724
-10.6492796 -2.8366549 -1.854285 3 725
-10.43468 -2.945314 -1.798957 3 726
-10.1810598 -3.0052781 -1.6788531 3 727
-9.9272052 -3.1173971 -1.5679851 3 728
-9.5890513 -3.2156701 -1.512048 3 729
-9.4222613 -3.259279 -1.35189 3 730
-9.1935263 -3.4193759 -1.2405371 3 731
-9.018157 -3.491112 -1.091208 3 732
-8.7432738 -3.65082 -1.0513279 4 733
-8.5540915 -3.7656381 -0.9006166 4 734
-8.2928743 -3.794483 -0.925889 4 735
-7.9958048 -4.0219541 -0.9972964 4 736
-7.759574 -4.099752 -0.8709022 4 737
-7.5450092 -4.1735268 -0.7352 4 738
-7.2995539 -4.3274078 -0.734498 4 739
-7.047441 -4.4419499 -0.6662798 4 740
-6.8164778 -4.5506611 -0.5342132 4 741
-6.578856 -4.6877918 -0.5183744 4 742
-6.326612 -4.8257079 -0.4936152 4 743
-6.1057658 -4.9237752 -0.407752 4 744
-5.897788 -4.9830972 -0.1681566 3 745
-5.6537218 -5.1001639 -0.1231413 3 746
-5.41853 -5.2780628 -0.0930338 3 747
-5.1622939 -5.3300901 0.0170031 3 748
-4.89599 -5.454226 0.1376066 3 749
-4.7008 -5.5400582 0.2878504 3 750
-4.4540601 -5.6027999 0.3541174 3 751
-4.247046 -5.6636982 0.4700956 3 752
-3.9505652 -5.8133559 0.5765676 3 753
-3.7211461 -5.9249612 0.7459823 3 754
-3.521986 -6.035995 0.7822943 3 755
-3.26016 -6.1432042 0.8388796 3 756
-3.0204599 -6.2361641 0.9399424 4 757
-2.7872331 -6.3497262 1.056445 4 758
-2.5542851 -6.474937 1.151109 4 759
-2.301584 -6.6094041 1.096169 4 760
-2.0491409 -6.7270179 1.241958 4 761
-1.831985 -6.84622 1.330586 4 762
-1.601509 -6.947968 1.4188811 4 763
-1.344681 -7.0757518 1.458211 4 764
-1.100245 -7.184639 1.570575 4 765
-0.864912 -7.2839928 1.669999 4 766
-0.6566296 -7.382967 1.842038 4 767
-0.4147987 -7.4937549 1.90154 4 768
-0.1223831 -7.6160112 2.051363 3 769
0.0690346 -7.7366352 2.058419 3 770
0.2809544 -7.7737789 2.191488 3 771
0.5421772 -7.953951 2.267894 3 772
0.7669029 -8.0306797 2.34004 3 773
1.064093 -8.1330109 2.4050491 3 774
1.249403 -8.2838669 2.329432 3 775
1.489576 -8.4226113 2.3643639 3 776
1.704409 -8.5087586 2.43944 3 777
2.019747 -8.5945816 2.4684 3 778
2.2462599 -8.6996346 2.541317 3 779
2.4988959 -8.879242 2.5122671 3 780
2.7829759 -9.0128746 2.4357651 4 781
3.0029621 -9.120409 2.54422 4 782
3.2050929 -9.236393 2.695663 4 783
3.472338 -9.3919945 2.6748681 4 784
3.7306841 -9.48839 2.676193 4 785
4.0129638 -9.5658512 2.7544439 4 786
4.2737942 -9.7232628 2.741395 4 787
4.48485 -9.84869 2.818054 4 788
4.728334 -9.9736118 2.862305 4 789
4.966856 -10.0591002 2.8663832 4 790
5.1878762 -10.1383896 3.051666 4 791
5.4014111 -10.1700802 3.1934891 4 792
-11.4209805 -2.2204781 -2.2638519 3 793
-11.2441998 -2.3191781 -2.2282741 3 794
-11.0046797 -2.369755 -2.1029179 3 795
-10.7262297 -2.473541 -2.0941899 3 796
-10.5518503 -2.5715449 -1.8701432 3 797
-10.29811 -2.7133451 -1.811057 3 798
-10.0558205 -2.7725771 -1.6942001 3 799
-9.7868195 -2.906174 -1.6283831 3 800
-9.5760737 -2.9315802 -1.510612 3 801
-9.3125792 -3.1073401 -1.431104 3 802
-9.088973 -3.1446359 -1.22745 3 803
-8.836072 -3.281498 -1.087008 3 804
-8.6694594 -3.419966 -0.994033 4 805