ITEM: TIMESTEP
219
ITEM: NUMBER OF ATOMS
85964
ITEM: BOX BOUNDS pp pp pp
-15.085 15.085
-15.085 15.085
-15.085 15.085
ITEM: ATOMS x y z type id
-4.3965869 -13.1385298 0.0177927 3 1
-4.199358 -12.9329004 -0.1170034 3 2
-4.0143991 -12.7683697 -0.3010969 3 3
-3.8604752 -12.6581602 -0.4014311 3 4
-3.785187 -12.4665203 -0.6182356 3 5
-3.632643 -12.3541298 -0.8240747 3 6
-3.4943161 -12.1431599 -0.9883338 3 7
-3.289628 -12.0285301 -1.157004 3 8
-3.144938 -11.8611898 -1.33015 3 9
-2.935319 -11.7105303 -1.49157 3 10
-2.7640929 -11.5528403 -1.591599 3 11
-2.500566 -11.4482699 -1.6707241 3 12
-2.32126 -11.3234501 -1.8248301 4 13
-2.1112859 -11.1927795 -1.990352 4 14
-1.96076 -11.0391703 -2.1753509 4 15
-1.805825 -10.85707 -2.2916629 4 16
-1.510536 -10.7696104 -2.360816 4 17
-1.402743 -10.5999203 -2.5320921 4 18
-1.178297 -10.4175501 -2.727685 4 19
-0.9647388 -10.32053 -2.7911711 4 20
-0.8146172 -10.2312899 -2.994622 4 21
-0.6329346 -10.0612497 -3.1605711 4 22
-0.5028763 -9.8668176 -3.297185 4 23
-0.3361454 -9.7195387 -3.453429 4 24
-0.2221413 -9.5878325 -3.686023 3 25
0.0022335 -9.4511585 -3.84932 3 26
0.1598148 -9.2698183 -3.978885 3 27
0.4171238 -9.1172266 -4.032722 3 28
0.5902863 -8.9379302 -4.189713 3 29
0.8011875 -8.7977057 -4.3274179 3 30
0.9574184 -8.7085257 -4.4771681 3 31
1.1523761 -8.4982252 -4.6366549 3 32
1.390505 -8.4070902 -4.7331882 3 33
1.486647 -8.2849054 -4.9085822 3 34
1.6416611 -8.0917273 -5.0570822 3 35
1.897009 -8.036273 -5.1058421 3 36
2.0996611 -7.882339 -5.2821779 4 37
2.3580091 -7.7527232 -5.382545 4 38
2.5788801 -7.6525932 -5.4668908 4 39
2.803139 -7.5179968 -5.572135 4 40
2.9957162 -7.3230581 -5.7642679 4 41
3.1897221 -7.1930399 -5.83145 4 42
3.338346 -7.032794 -6.0255122 4 43
3.4198191 -6.826653 -6.3136892 4 44
3.737696 -6.815816 -6.419724 4 45
3.8726522 -6.6035781 -6.49228 4 46
3.9873282 -6.446961 -6.6947909 4 47
4.3130131 -6.3718839 -6.689013 4 48
4.5297699 -6.2743311 -6.8237181 3 49
4.7903118 -6.1407251 -6.9008442 3 50
4.9407768 -6.029067 -6.9867868 3 51
5.2312279 -5.930205 -7.1378698 3 52
5.3362641 -5.8092571 -7.344132 3 53
5.524796 -5.6413069 -7.3814879 3 54
5.7176318 -5.5276799 -7.5859142 3 55
5.939375 -5.405303 -7.7052999 3 56
6.1444449 -5.2914462 -7.8804522 3 57
6.2395668 -5.0360351 -8.0658855 3 58
6.3990188 -4.9183842 -8.283555 3 59
6.5441189 -4.8117929 -8.3921366 3 60
6.676764 -4.650167 -8.5950594 4 61
6.8220902 -4.450902 -8.7844973 4 62
7.037756 -4.3330321 -8.9342834 4 63
7.270494 -4.2043052 -8.937705 4 64
7.4923921 -4.0921888 -9.1259756 4 65
7.679605 -3.9512662 -9.3040171 4 66
7.928074 -3.750665 -9.4533243 4 67
8.040863 -3.6039591 -9.6340857 4 68
8.1458817 -3.3892951 -9.8725616 4 69
8.1817741 -3.2652331 -10.14394 4 70
8.1466732 -3.161201 -10.3267899 4 71
8.2005692 -2.997371 -10.5401497 4 72
-4.4268761 -12.94205 0.1504164 3 73
-4.2263832 -12.7964401 0.0574141 3 74
-4.127717 -12.6151505 -0.1155748 3 75
-3.875473 -12.4436302 -0.2529154 3 76
-3.755554 -12.3063202 -0.4479856 3 77
-3.5776141 -12.16924 -0.6305304 3 78
-3.424228 -12.0386801 -0.7994719 3 79
-3.2362571 -11.8822298 -0.9530096 3 80
-3.09444 -11.6888199 -1.12499 3 81
-2.983434 -11.5754404 -1.332795 3 82
-2.7269821 -11.38235 -1.431579 3 83
-2.5452819 -11.3032398 -1.5425 3 84
-2.2623811 -11.1543703 -1.694427 4 85
-2.2222431 -11.0249996 -1.917932 4 86
-2.061234 -10.88052 -2.0930679 4 87
-1.8017091 -10.7252999 -2.1761451 4 88
-1.6156481 -10.6126499 -2.2973659 4 89
-1.405211 -10.4706297 -2.437804 4 90
-1.187693 -10.27244 -2.4872639 4 91
-1.0192339 -10.1511602 -2.7316141 4 92
-0.7773685 -9.9849196 -2.874686 4 93
-0.6790295 -9.8315478 -2.9514912 4 94
-0.5480576 -9.7006245 -3.1484611 4 95
-0.4168892 -9.5081511 -3.356643 4 96
-0.2039928 -9.3804197 -3.5294581 3 97
-0.0489063 -9.199626 -3.6799231 3 98
0.1317062 -9.0991983 -3.772111 3 99
0.3119869 -8.891715 -3.9409112 3 100
0.52565 -8.8014803 -4.0956159 3 101
0.7213879 -8.6334296 -4.1710482 3 102
0.961462 -8.4774409 -4.2992892 3 103
1.115763 -8.357398 -4.4205981 3 104
1.373791 -8.2439261 -4.5416541 3 105
1.48769 -8.1004629 -4.771636 3 106
1.700277 -7.9670902 -4.9557562 3 107
1.8077721 -7.8174658 -5.0662789 3 108
2.1145079 -7.7007718 -5.126441 4 109
2.3116701 -7.5706868 -5.2555041 4 110
2.5415671 -7.4624572 -5.366868 4 111
2.7833231 -7.3291268 -5.4705248 4 112
2.988571 -7.1299701 -5.5611558 4 113
3.1185629 -6.9761592 -5.7831092 4 114
3.3167169 -6.8434292 -5.9151282 4 115
3.4748671 -6.694427 -6.0926409 4 116
3.67399 -6.539371 -6.2192469 4 117
3.777798 -6.4148512 -6.3676748 4 118
4.0231819 -6.3129912 -6.4644022 4 119
4.246069 -6.1364431 -6.6619201 4 120
4.4826789 -6.0740819 -6.6820002 3 121
4.7057781 -5.911191 -6.7211581 3 122
4.9818902 -5.8333922 -6.8265872 3 123
5.1215358 -5.714675 -7.0368128 3 124
5.3501282 -5.5916362 -7.0729842 3 125
5.4892268 -5.4282031 -7.315373 3 126
5.6785202 -5.3024469 -7.471179 3 127
5.93885 -5.1921301 -7.5857501 3 128
6.018816 -5.071033 -7.756516 3 129
6.2199459 -4.9264498 -7.9248228 3 130
6.3775458 -4.7199998 -8.0857534 3 131
6.529963 -4.6456671 -8.26546 3 132
6.5902691 -4.4598232 -8.4417725 4 133
6.8016472 -4.289002 -8.6581049 4 134
7.0303922 -4.1516142 -8.7822285 4 135
7.1651568 -3.981845 -8.9312888 4 136
7.4147339 -3.866399 -9.0906229 4 137
7.5606861 -3.7099099 -9.1949759 4 138
7.7961478 -3.595084 -9.3353434 4 139
7.9706588 -3.4103191 -9.5188704 4 140
8.047121 -3.257838 -9.7387438 4 141
8.1376762 -3.0870709 -9.975051 4 142
8.1058865 -2.949323 -10.2060404 4 143
8.170187 -2.7992471 -10.3664103 4 144
-4.434268 -12.7842903 0.3088007 3 145
-4.3043089 -12.5625801 0.1663599 3 146
-4.1334038 -12.3805399 0.0242891 3 147
-3.931829 -12.2522698 -0.0776053 3 148
-3.678005 -12.1248703 -0.2150259 3 149
-3.593477 -11.9629002 -0.4244204 3 150
-3.402519 -11.8274899 -0.5884238 3 151
-3.2446311 -11.6764097 -0.7603388 3 152
-3.1344149 -11.5218401 -0.9634066 3 153
-2.926415 -11.3438902 -1.120698 3 154
-2.746213 -11.1979904 -1.212041 3 155
-2.564265 -11.0533199 -1.3760901 3 156
-2.411257 -10.9058 -1.5654381 4 157
-2.262429 -10.7519799 -1.7452671 4 158
-2.075537 -10.6451197 -1.898026 4 159
-1.906071 -10.4865504 -2.0636029 4 160
-1.7102081 -10.2898598 -2.2030759 4 161
-1.469561 -10.1653996 -2.286227 4 162
-1.291132 -10.0135498 -2.4310329 4 163
-1.0194401 -9.9238654 -2.5459869 4 164
-0.906353 -9.7555886 -2.6961341 4 165
-0.8158607 -9.6343222 -2.9043132 4 166
-0.5871887 -9.4902029 -3.016253 4 167
-0.4046631 -9.3317938 -3.1518011 4 168
-0.3129005 -9.1332827 -3.3694029 3 169
-0.0881214 -8.9880248 -3.5426681 3 170
0.1021481 -8.7968798 -3.6436131 3 171
0.2163563 -8.6674605 -3.8246131 3 172
0.4275436 -8.5671034 -3.985368 3 173
0.6688251 -8.4270325 -4.0092359 3 174
0.9270172 -8.305913 -4.114696 3 175
1.065729 -8.1352615 -4.3150592 3 176
1.296122 -7.991271 -4.4363051 3 177
1.462618 -7.880025 -4.5663839 3 178
1.6139241 -7.718112 -4.7064309 3 179
1.819256 -7.5617481 -4.853717 3 180
2.0147779 -7.460021 -5.0110331 4 181
2.229126 -7.3332849 -5.110414 4 182
2.4286671 -7.19835 -5.2212572 4 183
2.703672 -7.072865 -5.336576 4 184
2.8615972 -6.9365802 -5.466146 4 185
3.0274091 -6.7807532 -5.680461 4 186
3.2616539 -6.608274 -5.8218723 4 187
3.4535711 -6.4999762 -5.8888312 4 188
3.605129 -6.3572512 -6.0153279 4 189
3.783463 -6.181365 -6.2396312 4 190
4.012814 -6.0280638 -6.3158808 4 191
4.2363172 -6.000495 -6.393939 4 192
4.4248052 -5.874413 -6.4786039 3 193
4.6785131 -5.70115 -6.567626 3 194
4.9185892 -5.593101 -6.6788402 3 195
5.0873508 -5.4786859 -6.8498278 3 196
5.2873759 -5.3922219 -6.9642592 3 197
5.5030041 -5.2337241 -7.0993428 3 198
5.6532359 -5.0918779 -7.3128328 3 199
5.8235488 -4.96803 -7.4585452 3 200
6.0380631 -4.8287921 -7.5712438 3 201
6.1877589 -4.7191549 -7.73735 3 202
6.310143 -4.5588141 -7.9595418 3 203
6.4693871 -4.3947291 -8.1003561 3 204
6.629189 -4.249753 -8.2478666 4 205
6.7700901 -4.0808878 -8.4491816 4 206
6.875156 -3.8834072 -8.6710177 4 207
7.0887318 -3.7854071 -8.8123217 4 208
7.331398 -3.6524229 -8.9915572 4 209
7.5369129 -3.479152 -9.088376 4 210
7.7554469 -3.343045 -9.2284994 4 211
7.8994122 -3.1775479 -9.3571215 4 212
8.069725 -3.044106 -9.5622931 4 213
8.0497952 -2.908454 -9.8082276 4 214
8.1327362 -2.7261 -10.04564 4 215
8.23773 -2.5954261 -10.1862803 4 216
-4.3952098 -12.5412503 0.5674658 3 217
-4.4263239 -12.3313303 0.3335276 3 218
-4.1509862 -12.1679001 0.2034388 3 219
-3.962702 -12.0624599 0.0635653 3 220
-3.7465949 -11.8841896 -0.0944033 3 221
-3.5889881 -11.6911497 -0.2588778 3 222
-3.5365961 -11.5503302 -0.4527445 3 223
-3.29281 -11.4031601 -0.5814333 3 224
-3.1534591 -11.26336 -0.7770014 3 225
-2.99296 -11.1031399 -0.972621 3 226
-2.779589 -10.9499904 -1.068019 3 227
-2.6684311 -10.8108597 -1.2732951 3 228
-2.441371 -10.6927901 -1.455401 4 229
-2.2924311 -10.5751801 -1.592731 4 230
-2.091574 -10.3632002 -1.784665 4 231
-1.894226 -10.2494698 -1.870868 4 232
-1.747314 -10.0883198 -2.020484 4 233
-1.5348671 -9.9761324 -2.1264391 4 234
-1.325935 -9.7657137 -2.296123 4 235
-1.097284 -9.6819258 -2.394582 4 236
-0.9368534 -9.5287905 -2.588872 4 237
-0.7654915 -9.4115992 -2.6601401 4 238
-0.6382256 -9.2267637 -2.894197 4 239
-0.482645 -9.0393019 -3.071986 4 240
-0.2986279 -8.9481592 -3.1732609 3 241
-0.1173744 -8.778575 -3.321893 3 242
0.0666981 -8.6257754 -3.4738441 3 243
0.2416916 -8.4882498 -3.6265171 3 244
0.4281139 -8.3520899 -3.77317 3 245
0.5913086 -8.179183 -3.9103752 3 246
0.814085 -8.0268126 -3.991673 3 247
1.055532 -7.8829242 -4.0946612 3 248
1.1969661 -7.806592 -4.2619939 3 249
1.4290101 -7.6742659 -4.3494811 3 250
1.552128 -7.496646 -4.542718 3 251
1.745935 -7.390584 -4.7196908 3 252
1.996275 -7.268981 -4.8286891 4 253
2.2144151 -7.0989642 -4.957324 4 254
2.429586 -6.9904342 -5.0880232 4 255
2.631506 -6.863729 -5.153461 4 256
2.8249259 -6.7204919 -5.3237848 4 257
2.988373 -6.571671 -5.4782038 4 258
3.18716 -6.4446802 -5.6476813 4 259
3.3794191 -6.2590342 -5.7550612 4 260
3.567745 -6.1298952 -5.8931342 4 261
3.709183 -5.9499078 -5.9995132 4 262
3.985666 -5.8164721 -6.0961661 4 263
4.2623139 -5.7681279 -6.2301278 4 264
4.4228711 -5.6274562 -6.2521892 3 265
4.6828709 -5.5241771 -6.3480649 3 266
4.8898392 -5.3930121 -6.5368991 3 267
5.0123329 -5.2151098 -6.6550551 3 268
5.2282658 -5.1167331 -6.838645 3 269
5.4690528 -5.001193 -6.985528 3 270
5.6643911 -4.8597942 -7.1063409 3 271
5.7757468 -4.7433582 -7.2898002 3 272
5.9989738 -4.637578 -7.4643259 3 273
6.1338458 -4.4301648 -7.5776 3 274
6.2647839 -4.3069282 -7.744834 3 275
6.4882722 -4.1613212 -7.9271542 3 276
6.6303082 -4.032989 -8.0591326 4 277
6.7980709 -3.872329 -8.2884665 4 278
6.9211178 -3.7194741 -8.459302 4 279
7.0388808 -3.514318 -8.6535731 4 280
7.2462788 -3.363235 -8.7925539 4 281
7.4300208 -3.242919 -8.9291086 4 282
7.6837311 -3.1479831 -9.0558748 4 283
7.8243051 -2.98083 -9.2804213 4 284
7.9349842 -2.83813 -9.4819536 4 285
8.0906467 -2.630534 -9.6513357 4 286
8.1445999 -2.4900539 -9.8270436 4 287
8.1981106 -2.3259189 -10.0253 4 288
-4.4402452 -12.2174502 0.6921606 3 289
-4.3473921 -12.1142502 0.5675116 3 290
-4.2264362 -11.9554702 0.2987566 3 291
-3.91869 -11.7939396 0.1988058 3 292
-3.8807262 -11.6548205 0.0028162 3 293
-3.7247951 -11.4737902 -0.1072607 3 294
-3.552522 -11.3543301 -0.2905931 3 295
-3.419658 -11.1512203 -0.4625483 3 296
-3.228683 -11.0148201 -0.6613302 3 297
-3.054889 -10.8429298 -0.7818689 3 298
-2.903092 -10.7390099 -0.9906034 3 299
-2.7550121 -10.5478297 -1.136207 3 300
-2.5656631 -10.4460202 -1.2371301 4 301
-2.3251691 -10.3164101 -1.433084 4 302
-2.1259539 -10.1464396 -1.58178 4 303
-2.012157 -10.0119896 -1.727607 4 304
-1.718534 -9.8825026 -1.844245 4 305
-1.591929 -9.7806959 -1.976792 4 306
-1.375634 -9.5822573 -2.092118 4 307
-1.2072771 -9.3987036 -2.2706561 4 308
-0.9753018 -9.2979059 -2.3701911 4 309
-0.8184185 -9.1436548 -2.527951 4 310
-0.6188488 -9.0132418 -2.667409 4 311
-0.51651 -8.8952208 -2.8902582 4 312
-0.334177 -8.7132788 -3.0081871 3 313
-0.1049576 -8.597373 -3.12502 3 314
0.0134029 -8.4411574 -3.2879441 3 315
0.2087002 -8.2906256 -3.4657681 3 316
0.3297329 -8.092658 -3.6795509 3 317
0.5295448 -7.917853 -3.737561 3 318
0.7594299 -7.7809382 -3.850858 3 319
0.9483566 -7.7072149 -3.997201 3 320
1.150208 -7.5612712 -4.1074319 3 321
1.352955 -7.4072938 -4.2893191 3 322
1.489962 -7.2695928 -4.453321 3 323
1.687305 -7.1250348 -4.6246162 3 324
1.960159 -7.0045271 -4.674233 4 325
2.1260951 -6.91643 -4.807384 4 326
2.3438051 -6.7558933 -4.9238502 4 327
2.5623069 -6.6033201 -4.9692832 4 328
2.7520981 -6.5013089 -5.1155119 4 329
2.9198972 -6.3534522 -5.3302808 4 330
3.131927 -6.1996012 -5.51933 4 331
3.2438641 -6.0145011 -5.616765 4 332
3.4582501 -5.870574 -5.7829938 4 333
3.7705291 -5.8131418 -5.8018899 4 334
3.983028 -5.6856013 -5.9142518 4 335
4.278028 -5.5971308 -5.952088 4 336
4.428793 -5.3999758 -6.1468802 3 337
4.614132 -5.2828679 -6.3052869 3 338
4.7466259 -5.116374 -6.4212961 3 339
4.98061 -5.0478539 -6.5001459 3 340
5.21736 -4.93183 -6.689889 3 341
5.4094262 -4.8111849 -6.8361311 3 342
5.6045742 -4.7045832 -6.959558 3 343
5.7229162 -4.4905181 -7.1830912 3 344
5.9054298 -4.340529 -7.2959242 3 345
6.07546 -4.269301 -7.4425211 3 346
6.2505741 -4.1003308 -7.636384 3 347
6.4455428 -3.967721 -7.7507682 3 348
6.614677 -3.8020389 -7.935164 4 349
6.730433 -3.610776 -8.101861 4 350
6.9211898 -3.4962321 -8.2525683 4 351
7.1226182 -3.407269 -8.4129419 4 352
7.282074 -3.1912761 -8.593009 4 353
7.4262371 -3.0188091 -8.742013 4 354
7.5784912 -2.9308542 -8.954257 4 355
7.7225251 -2.7343571 -9.1079168 4 356
7.881618 -2.57022 -9.2928438 4 357
8.0230751 -2.456563 -9.4837599 4 358
8.1515751 -2.25768 -9.6580191 4 359
8.3443031 -2.1836541 -9.7588425 4 360
-4.489368 -12.0149498 0.8567324 3 361
-4.3573232 -11.9134998 0.6844358 3 362
-4.2464519 -11.76927 0.4760637 3 363
-4.0384421 -11.6338701 0.30338 3 364
-3.9033152 -11.4023199 0.1588335 3 365
-3.7377911 -11.3337298 0.0449686 3 366
-3.5722521 -11.1076899 -0.139287 3 367
-3.470325 -10.9598398 -0.287528 3 368
-3.2965491 -10.8083096 -0.4388647 3 369
-3.1503871 -10.61936 -0.6964808 3 370
-2.949252 -10.4954701 -0.8634826 3 371
-2.807179 -10.3429403 -0.9692774 3 372
-2.5738571 -10.2522097 -1.121459 4 373
-2.3480311 -10.0928497 -1.217462 4 374
-2.2167189 -9.8896666 -1.407035 4 375
-2.025311 -9.7266436 -1.592965 4 376
-1.827466 -9.671998 -1.695907 4 377
-1.5470931 -9.5546065 -1.825583 4 378
-1.365654 -9.4263201 -1.93283 4 379
-1.185331 -9.1840086 -2.0283251 4 380
-1.058306 -9.0655336 -2.24334 4 381
-0.7941113 -8.9501544 -2.3332551 4 382
-0.6119252 -8.8366556 -2.4457979 4 383
-0.4472485 -8.6946554 -2.5873649 4 384
-0.4310455 -8.5076247 -2.8398582 3 385
-0.1833 -8.3450308 -3.031503 3 386
0.018898 -8.2370625 -3.0902171 3 387
0.1709175 -8.0976648 -3.2723839 3 388
0.2598705 -7.889144 -3.4574311 3 389
0.4374142 -7.713965 -3.6396911 3 390
0.603178 -7.5665479 -3.7587371 3 391
0.866188 -7.430665 -3.887362 3 392
1.042431 -7.296948 -4.0758958 3 393
1.2214431 -7.1405482 -4.1778331 3 394
1.414959 -7.0455499 -4.3419919 3 395
1.61051 -6.8965058 -4.4800859 3 396
1.839146 -6.803277 -4.5726481 4 397
2.1077919 -6.6781321 -4.6604662 4 398
2.2776971 -6.524806 -4.7381139 4 399
2.5269451 -6.3620749 -4.865911 4 400
2.723764 -6.272861 -4.983441 4 401
2.8964692 -6.1113119 -5.132371 4 402
3.052448 -5.947474 -5.2536311 4 403
3.2971211 -5.849402 -5.4218531 4 404
3.5052891 -5.685906 -5.5543642 4 405
3.728745 -5.620172 -5.6313138 4 406
3.902668 -5.450717 -5.7400661 4 407
4.1549211 -5.3702231 -5.8166819 4 408
4.414001 -5.198277 -5.9207702 3 409
4.5093961 -5.0592909 -6.131103 3 410
4.7563949 -4.8928162 -6.2093692 3 411
4.966251 -4.8115258 -6.416306 3 412
5.1438732 -4.683528 -6.4735961 3 413
5.3828578 -4.570508 -6.6419382 3 414
5.509985 -4.4245558 -6.853438 3 415
5.6413942 -4.2485609 -6.9932828 3 416
5.7904091 -4.1819329 -7.190341 3 417
6.0464082 -3.9768132 -7.2909751 3 418
6.2066059 -3.893462 -7.4707709 3 419
6.4414749 -3.8016269 -7.6034312 3 420
6.6516719 -3.60464 -7.690867 4 421
6.800694 -3.458875 -7.8913908 4 422
6.9661078 -3.3303959 -8.0698099 4 423
7.0470452 -3.122792 -8.294467 4 424
7.248425 -2.9725202 -8.4064703 4 425
7.3501849 -2.8234129 -8.5870104 4 426
7.540834 -2.659472 -8.80861 4 427
7.6724572 -2.518615 -8.9430876 4 428
7.8686638 -2.4076259 -9.1637697 4 429
8.0614405 -2.213161 -9.3421049 4 430
8.1644459 -2.06808 -9.479846 4 431
8.3155441 -1.9542 -9.6118155 4 432
-4.7080121 -11.76015 0.9220762 3 433
-4.461082 -11.6548004 0.897706 3 434
-4.2150951 -11.5063896 0.7093725 3 435
-4.1053882 -11.3978796 0.5276804 3 436
-4.0088501 -11.1691599 0.2746096 3 437
-3.784271 -11.06071 0.1893606 3 438
-3.6429119 -10.8627396 0.0022631 3 439
-3.5426669 -10.7291899 -0.1545992 3 440
-3.3870909 -10.61094 -0.3432417 3 441
-3.2344151 -10.4538498 -0.5731859 3 442
-2.995147 -10.2865601 -0.6731806 3 443
-2.8221581 -10.1257296 -0.788661 3 444
-2.637902 -9.9748298 -0.9761516 4 445
-2.4392619 -9.807971 -1.121053 4 446
-2.246856 -9.7018595 -1.247581 4 447
-2.037935 -9.588996 -1.409205 4 448
-1.857084 -9.4252024 -1.473647 4 449
-1.6132061 -9.3032122 -1.6737241 4 450
-1.431747 -9.2028952 -1.719522 4 451
-1.228274 -9.0833159 -1.898574 4 452
-1.093164 -8.8710546 -2.083669 4 453
-0.86232 -8.7185297 -2.1754429 4 454
-0.6682377 -8.6242857 -2.3511779 4 455
-0.5404472 -8.4292765 -2.521298 4 456
-0.3456554 -8.2695208 -2.662381 3 457
-0.1900787 -8.1678076 -2.8089931 3 458
-0.022583 -7.975505 -2.9696 3 459
0.1694527 -7.880908 -3.0828941 3 460
0.3358288 -7.7358899 -3.290689 3 461
0.469368 -7.5557199 -3.377223 3 462
0.6142044 -7.3825011 -3.6083989 3 463
0.7846069 -7.2416449 -3.7856591 3 464
1.048834 -7.0789461 -3.8774272 3 465
1.216049 -6.9381972 -4.0780711 3 466
1.372849 -6.7747388 -4.18541 3 467
1.6210211 -6.6966052 -4.20437 3 468
1.823481 -6.5988779 -4.399972 4 469
2.0254731 -6.4234171 -4.4945541 4 470
2.2570169 -6.3188052 -4.6191468 4 471
2.5139771 -6.1631799 -4.699481 4 472
2.727793 -6.0400648 -4.7588091 4 473
2.93256 -5.9196138 -4.919099 4 474
3.0863931 -5.7591701 -5.090322 4 475
3.267952 -5.6206899 -5.2058988 4 476
3.431736 -5.4607501 -5.335752 4 477
3.624233 -5.290936 -5.5048108 4 478
3.846571 -5.2355719 -5.6308999 4 479
4.125051 -5.0705562 -5.7050872 4 480
4.295835 -4.960559 -5.765306 3 481
4.4999519 -4.8221412 -5.9808278 3 482
4.672102 -4.7327662 -6.098084 3 483
4.927219 -4.581883 -6.2396751 3 484
5.1493492 -4.4518442 -6.3535109 3 485
5.229053 -4.3277369 -6.522553 3 486
5.4056969 -4.2245951 -6.66327 3 487
5.5241471 -4.0545359 -6.8987652 3 488
5.841499 -3.922463 -6.9899192 3 489
5.963469 -3.760917 -7.1736631 3 490
6.2054558 -3.6542411 -7.3016348 3 491
6.3836541 -3.5313959 -7.42237 3 492
6.612247 -3.36115 -7.5831652 4 493
6.7197738 -3.170949 -7.7523718 4 494
6.8677622 -3.048305 -7.943318 4 495
7.069603 -2.920171 -8.0894041 4 496
7.1885052 -2.744447 -8.2792835 4 497
7.4232998 -2.5680399 -8.436307 4 498
7.4605809 -2.39219 -8.6632796 4 499
7.6389179 -2.2888961 -8.8439256 4 500
7.832119 -2.124543 -9.0182924 4 501
7.9591332 -1.979871 -9.2191382 4 502
8.092905 -1.840955 -9.3825388 4 503
8.1657848 -1.716622 -9.5606661 4 504
-4.7357068 -11.5179997 1.004872 3 505
-4.4979048 -11.4526396 0.9854976 3 506
-4.3694258 -11.2577896 0.8109694 3 507
-4.2285509 -11.1263599 0.6618891 3 508
-4.0037041 -10.9810496 0.5301161 3 509
-3.891933 -10.8271303 0.3023291 3 510
-3.70571 -10.6947003 0.1286688 3 511
-3.550833 -10.5232497 -0.0214605 3 512
-3.475631 -10.3323498 -0.2402544 3 513
-3.268508 -10.1943998 -0.4001646 3 514
-3.0723009 -10.0901804 -0.4663286 3 515
-2.87939 -9.9401408 -0.7185985 3 516
-2.6303821 -9.8103276 -0.796319 4 517
-2.432261 -9.6687289 -0.9408922 4 518
-2.250411 -9.5278921 -1.091285 4 519
-2.1370921 -9.3383055 -1.251824 4 520
-1.92647 -9.2077627 -1.3770421 4 521
-1.7144211 -9.0214911 -1.514287 4 522
-1.480781 -8.8950454 -1.619018 4 523
-1.344816 -8.8241759 -1.8255821 4 524
-1.1068651 -8.6613894 -1.87556 4 525
-0.9234906 -8.507844 -2.0726631 4 526
-0.7500782 -8.3977404 -2.204144 4 527
-0.5417252 -8.1877565 -2.351449 4 528
-0.479969 -8.0497618 -2.5582841 3 529
-0.2151508 -7.9370342 -2.611053 3 530
-0.0140591 -7.7888561 -2.7608021 3 531
0.1574841 -7.602263 -2.900056 3 532
0.3212605 -7.4589911 -3.059566 3 533
0.4545918 -7.3361879 -3.2090521 3 534
0.7275829 -7.2233801 -3.370513 3 535
0.8473416 -7.013309 -3.600894 3 536
1.054752 -6.9061122 -3.662751 3 537
1.217678 -6.7524143 -3.837199 3 538
1.3381521 -6.6087199 -4.0013781 3 539
1.5593571 -6.5006299 -4.0499582 3 540
1.810862 -6.3321962 -4.1725702 4 541
1.983051 -6.2355132 -4.3250742 4 542
2.212528 -6.0887141 -4.4337321 4 543
2.3876059 -5.939878 -4.5708041 4 544
2.6383801 -5.8336439 -4.6914993 4 545
2.8617972 -5.673347 -4.7989211 4 546
3.0709169 -5.564651 -4.8639822 4 547
3.233505 -5.4225049 -5.0202131 4 548
3.44589 -5.3263898 -5.1903281 4 549
3.6751521 -5.148767 -5.3289938 4 550
3.808065 -4.95577 -5.4473348 4 551
4.0175419 -4.8688192 -5.607491 4 552
4.2203732 -4.732337 -5.6318431 3 553
4.4535661 -4.6363778 -5.8023348 3 554
4.5867839 -4.4676662 -5.9837408 3 555
4.809813 -4.350924 -6.137918 3 556
5.0234809 -4.2274332 -6.24159 3 557
5.2551708 -4.0910878 -6.3583799 3 558
5.343822 -3.9592792 -6.5690851 3 559
5.509399 -3.7950621 -6.7234812 3 560
5.719049 -3.6940789 -6.8179312 3 561
5.9810848 -3.55264 -6.9765922 3 562
6.1190281 -3.427697 -7.150435 3 563
6.3012219 -3.2725611 -7.3378129 3 564
6.533628 -3.1410439 -7.4820471 4 565
6.6913591 -3.0118799 -7.607451 4 566
6.820314 -2.85019 -7.7927542 4 567
6.9788442 -2.666852 -7.985919 4 568
7.142673 -2.5033391 -8.1685906 4 569
7.3114801 -2.329381 -8.2635107 4 570
7.4213891 -2.223804 -8.4990187 4 571
7.6016221 -2.0285311 -8.6597491 4 572
7.7269378 -1.892455 -8.8340216 4 573
7.864996 -1.772393 -8.99405 4 574
8.0186329 -1.606126 -9.2090616 4 575
8.1377029 -1.472417 -9.3913012 4 576
-4.797935 -11.3080702 1.2328791 3 577
-4.5501752 -11.1476498 1.175902 3 578
-4.485899 -11.0419598 0.9465648 3 579
-4.2780981 -10.8734704 0.7993803 3 580
-4.0780339 -10.7831803 0.649518 3 581
-3.9204062 -10.5708399 0.4759569 3 582
-3.7555051 -10.4714899 0.2853022 3 583
-3.654629 -10.2882795 0.1005354 3 584
-3.4901049 -10.1113701 -0.0632963 3 585
-3.293289 -9.984521 -0.2405233 3 586
-3.086292 -9.8362513 -0.3552313 3 587
-2.902552 -9.71523 -0.5316077 3 588
-2.681958 -9.5481234 -0.6121531 4 589
-2.5341549 -9.4212008 -0.7872572 4 590
-2.320128 -9.2243738 -0.9639826 4 591
-2.0972459 -9.1351481 -1.068017 4 592
-1.971843 -8.9760886 -1.257838 4 593
-1.804652 -8.8623762 -1.371846 4 594
-1.5919581 -8.6975889 -1.527825 4 595
-1.392094 -8.5479536 -1.636922 4 596
-1.143669 -8.3858118 -1.850097 4 597
-0.9866906 -8.2824316 -1.923556 4 598
-0.8099747 -8.1222429 -2.0865741 4 599
-0.6510582 -7.969254 -2.24965 4 600
-0.4479694 -7.8363471 -2.345849 3 601
-0.3211079 -7.6371641 -2.587584 3 602
-0.1516361 -7.534595 -2.6847601 3 603
0.0904827 -7.429967 -2.7642679 3 604
0.2763271 -7.2617269 -2.910945 3 605
0.4957943 -7.174109 -3.0270131 3 606
0.6572475 -7.0109568 -3.195653 3 607
0.8735504 -6.8114772 -3.3369169 3 608
1.029709 -6.7221771 -3.4425481 3 609
1.16745 -6.5851789 -3.6112511 3 610
1.391174 -6.4285798 -3.718684 3 611
1.513168 -6.2644739 -3.9879142 3 612
1.726709 -6.1126089 -4.0743399 4 613
1.956354 -5.997426 -4.205842 4 614
2.193996 -5.86086 -4.2536268 4 615
2.3534789 -5.755538 -4.3922591 4 616
2.5390821 -5.574368 -4.5433259 4 617
2.827003 -5.4928899 -4.6271329 4 618
2.973522 -5.3399081 -4.7626329 4 619
3.214252 -5.212522 -4.8337069 4 620
3.3903601 -5.0600252 -5.0088472 4 621
3.541992 -4.9189038 -5.219945 4 622
3.8234079 -4.8157912 -5.2433119 4 623
4.0076599 -4.6319881 -5.4219518 4 624
4.2318921 -4.5157042 -5.4984432 3 625
4.4619012 -4.4196539 -5.6221552 3 626
4.6893182 -4.3221502 -5.7264109 3 627
4.7966442 -4.1304622 -5.9655938 3 628
4.8988528 -4.0018549 -6.1241598 3 629
5.1339092 -3.847663 -6.2750478 3 630
5.3664651 -3.7091441 -6.4160032 3 631
5.4410248 -3.5711031 -6.6594992 3 632
5.693914 -3.4778741 -6.7714658 3 633
5.8591752 -3.30897 -6.879241 3 634
6.10671 -3.1718991 -6.98837 3 635
6.2817021 -3.080482 -7.114182 3 636
6.4454441 -2.890452 -7.331193 4 637
6.6268792 -2.7531879 -7.462441 4 638
6.697134 -2.5931771 -7.6700869 4 639
6.8202439 -2.420583 -7.855981 4 640
7.0595989 -2.3270941 -8.0168285 4 641
7.1960011 -2.17138 -8.1260691 4 642
7.3672681 -2.001637 -8.3829575 4 643
7.608397 -1.872613 -8.483697 4 644
7.729044 -1.724505 -8.6416636 4 645
7.8346482 -1.547261 -8.8589392 4 646
7.9109168 -1.376906 -9.064292 4 647
8.0152206 -1.243335 -9.2245016 4 648
-4.826736 -11.0704203 1.4366011 3 649
-4.719471 -10.8971596 1.24023 3 650
-4.5333009 -10.7880802 1.0976779 3 651
-4.3792052 -10.6645003 0.9243994 3 652
-4.199564 -10.5092602 0.7198248 3 653
-4.076674 -10.3543501 0.5532713 3 654
-3.867657 -10.2434902 0.4090643 3 655
-3.6199661 -10.0967999 0.3042593 3 656
-3.516752 -9.8970594 0.0742579 3 657
-3.2894411 -9.77036 -0.0073977 3 658
-3.141495 -9.6553774 -0.2422743 3 659
-2.946267 -9.4516993 -0.4074221 3 660
-2.763552 -9.3566876 -0.5093985 4 661
-2.524467 -9.2413607 -0.5997972 4 662
-2.363734 -9.0515928 -0.8006487 4 663
-2.193588 -8.8977796 -0.8750468 4 664
-2.019222 -8.7866135 -1.066813 4 665
-1.814816 -8.6533842 -1.194606 4 666
-1.62993 -8.4453326 -1.346917 4 667
-1.4550801 -8.2814036 -1.464913 4 668
-1.215986 -8.1786528 -1.598607 4 669
-1.010838 -8.0571585 -1.780723 4 670
-0.8640556 -7.9064822 -1.862111 4 671
-0.6987306 -7.733182 -2.0452969 4 672
-0.5074501 -7.606174 -2.1796119 3 673
-0.3959999 -7.45539 -2.42504 3 674
-0.1468678 -7.375051 -2.517179 3 675
0.050787 -7.187387 -2.615659 3 676
0.1620998 -7.0003352 -2.77348 3 677
0.4384365 -6.927556 -2.835284 3 678
0.6181813 -6.7769542 -2.979442 3 679
0.8043022 -6.6598273 -3.1621449 3 680
1.0252399 -6.5012331 -3.2540219 3 681
1.199396 -6.3706432 -3.423625 3 682
1.282637 -6.2315211 -3.6062379 3 683
1.497887 -6.0207529 -3.75001 3 684
1.604177 -5.9090892 -3.886998 4 685
1.950193 -5.823155 -3.9628762 4 686
2.1512849 -5.6684499 -4.1043539 4 687
2.383966 -5.53933 -4.222796 4 688
2.543011 -5.3763571 -4.3575959 4 689
2.7518101 -5.2371931 -4.4660349 4 690
3.0154669 -5.1186862 -4.5328741 4 691
3.1547301 -4.9741302 -4.7109752 4 692
3.336628 -4.8332911 -4.8094383 4 693
3.544266 -4.6902342 -4.995667 4 694
3.7202971 -4.5648089 -5.099288 4 695
4.0290828 -4.4736891 -5.2234049 4 696
4.2386651 -4.3570218 -5.357894 3 697
4.5597248 -4.2709532 -5.3714152 3 698
4.6168099 -4.0156531 -5.6103869 3 699
4.7601128 -3.916888 -5.7787242 3 700
4.876585 -3.7820599 -5.954013 3 701
5.1048889 -3.632947 -6.1034479 3 702
5.3128991 -3.5297289 -6.2514868 3 703
5.394989 -3.345304 -6.4757171 3 704
5.5899029 -3.211293 -6.6321359 3 705
5.8101268 -3.0825 -6.7520151 3 706
6.0593319 -2.952245 -6.8306113 3 707
6.2641511 -2.8306971 -6.988595 3 708
6.4232979 -2.63553 -7.1509328 4 709
6.5736771 -2.5432079 -7.2820749 4 710
6.6785178 -2.374228 -7.5009408 4 711
6.747839 -2.206424 -7.658875 4 712
7.0242329 -2.0626919 -7.820519 4 713
7.1302872 -1.953761 -8.0160933 4 714
7.4149552 -1.804294 -8.0825529 4 715
7.5714402 -1.7089911 -8.3216829 4 716
7.691999 -1.532743 -8.494607 4 717
7.7981739 -1.291112 -8.7243548 4 718
7.8646622 -1.149781 -8.8906718 4 719
7.8235421 -1.066175 -9.0972872 4 720
-4.9276028 -10.8197899 1.6145621 3 721
-4.7982641 -10.7278605 1.350415 3 722
-4.6267991 -10.5574198 1.243194 3 723
-4.4874869 -10.3831797 1.024354 3 724
-4.2980671 -10.2563601 0.9061804 3 725
-4.1326261 -10.09729 0.6731596 3 726
-3.954788 -9.9925242 0.5912142 3 727
-3.7164519 -9.8747846 0.4061823 3 728
-3.567822 -9.6454363 0.2629042 3 729
-3.3797979 -9.5587416 0.1010733 3 730
-3.1724701 -9.3481989 -0.0509577 3 731
-2.986099 -9.2941351 -0.156148 3 732
-2.760797 -9.139144 -0.2848883 4 733
-2.6148319 -9.0241022 -0.4537897 4 734
-2.3701601 -8.835578 -0.5449362 4 735
-2.169663 -8.6668482 -0.7376795 4 736
-1.997712 -8.5449286 -0.9115686 4 737
-1.802902 -8.4051085 -1.00974 4 738
-1.6596411 -8.2499437 -1.162105 4 739
-1.497597 -8.0837765 -1.33616 4 740
-1.283486 -7.936429 -1.4832601 4 741
-1.114708 -7.7649722 -1.585336 4 742
-0.9029504 -7.6453538 -1.7481361 4 743
-0.7621422 -7.5206938 -1.905816 4 744
-0.5572205 -7.3809228 -2.052547 3 745
-0.405962 -7.2335982 -2.1457551 3 746
-0.2651005 -7.0918131 -2.326978 3 747
-0.0361443 -6.9766488 -2.4897681 3 748
0.1730404 -6.8585458 -2.6073289 3 749
0.4262123 -6.6248522 -2.7315209 3 750
0.5551206 -6.5491019 -2.8217151 3 751
0.7246208 -6.387959 -2.937247 3 752
0.8328247 -6.2840052 -3.1388199 3 753
1.093689 -6.1337671 -3.270936 3 754
1.268812 -5.980721 -3.3716271 3 755
1.422514 -5.8441402 -3.55301 3 756
1.731094 -5.7363439 -3.6608689 4 757
1.87005 -5.520082 -3.800761 4 758
2.1304679 -5.4225889 -3.936349 4 759
2.3584731 -5.3018708 -4.087512 4 760
2.5292399 -5.171021 -4.1440001 4 761
2.673429 -5.054246 -4.3078361 4 762
2.938444 -4.9038482 -4.38058 4 763
3.088974 -4.747922 -4.5327769 4 764
3.20574 -4.6062379 -4.7379012 4 765
3.490475 -4.4569268 -4.859159 4 766
3.7204151 -4.3394542 -4.924727 4 767
3.972136 -4.267602 -5.0660009 4 768
4.1488652 -4.1567659 -5.1248121 3 769
4.4068241 -3.973718 -5.285151 3 770
4.543663 -3.835937 -5.4618902 3 771
4.7012582 -3.662473 -5.6327539 3 772
4.8167711 -3.54614 -5.8475772 3 773
5.0506458 -3.4011581 -5.956401 3 774
5.194727 -3.259114 -6.1495848 3 775
5.4103952 -3.1393421 -6.3042898 3 776
5.6312161 -2.971807 -6.4504771 3 777
5.77142 -2.826385 -6.5861731 3 778
5.932301 -2.726352 -6.7896738 3 779
6.2053661 -2.601291 -6.881003 3 780
6.3888989 -2.4148109 -6.969748 4 781
6.4943142 -2.251401 -7.1820569 4 782
6.5874939 -2.114501 -7.3546109 4 783
6.7440949 -1.951371 -7.5349679 4 784
6.9058062 -1.8259861 -7.7181793 4 785
7.1422 -1.747561 -7.8647132 4 786
7.3134422 -1.558848 -7.994105 4 787
7.4849949 -1.367879 -8.1801958 4 788
7.6252561 -1.285991 -8.3210554 4 789
7.8052459 -1.134778 -8.5248881 4 790
7.8434348 -0.921487 -8.7600146 4 791
7.8286762 -0.8111297 -8.9262896 4 792
-5.00351 -10.5961905 1.742234 3 793
-4.864379 -10.44594 1.510653 3 794
-4.789361 -10.3490105 1.304847 3 795
-4.5203839 -10.2071505 1.199309 3 796
-4.386044 -10.0762997 1.01208 3 797
-4.2884078 -9.9155704 0.8374473 3 798
-4.0377131 -9.7441092 0.6425295 3 799
-3.855412 -9.5675764 0.4881983 3 800
-3.6781721 -9.4999495 0.40096 3 801
-3.448973 -9.2724352 0.2669725 3 802
-3.186935 -9.2026815 0.1625261 3 803