ITEM: TIMESTEP
1152
ITEM: NUMBER OF ATOMS
85964
ITEM: BOX BOUNDS pp pp pp
-15.085 15.085
-15.085 15.085
-15.085 15.085
ITEM: ATOMS x y z type id
-10.4872198 5.167872 -6.258533 3 1
-10.3754397 4.909722 -6.2503662 3 2
-10.3350802 4.6765542 -6.3844819 3 3
-10.2260399 4.3800779 -6.3516698 3 4
-10.1131401 4.1196199 -6.423192 3 5
-10.0213299 3.836762 -6.4919219 3 6
-9.9036952 3.70328 -6.604837 3 7
-9.8130617 3.398278 -6.636415 3 8
-9.742692 3.1651781 -6.757052 3 9
-9.5990477 2.8912822 -6.8302908 3 10
-9.4618674 2.654346 -6.8263788 3 11
-9.3664274 2.383199 -6.7060752 3 12
-9.2622728 2.1747611 -6.672029 4 13
-9.0351229 1.89079 -6.7289572 4 14
-9.0476847 1.59565 -6.5743518 4 15
-8.9229498 1.3333991 -6.626637 4 16
-8.7630034 1.131711 -6.593719 4 17
-8.6791563 0.8050781 -6.5623451 4 18
-8.4999972 0.6217456 -6.618413 4 19
-8.4786043 0.3833394 -6.51856 4 20
-8.4035196 0.1571765 -6.3834362 4 21
-8.3949576 -0.1357684 -6.2842779 4 22
-8.4385576 -0.2919593 -6.0371642 4 23
-8.3801298 -0.5889525 -5.97227 4 24
-8.2708578 -0.8435856 -5.977798 3 25
-8.1718245 -1.065885 -5.891398 3 26
-8.1620836 -1.388123 -5.712903 3 27
-8.1487894 -1.5687291 -5.6055899 3 28
-7.9510222 -1.8755702 -5.5557642 3 29
-7.9865808 -2.0780599 -5.3569498 3 30
-8.0050611 -2.3712411 -5.2308259 3 31
-7.9371272 -2.6113639 -5.130909 3 32
-7.880908 -2.869993 -4.988399 3 33
-7.852429 -3.116178 -4.8018842 3 34
-7.757741 -3.3355279 -4.6632929 3 35
-7.6976462 -3.4838951 -4.4965139 3 36
-7.703187 -3.752816 -4.3070688 4 37
-7.690619 -3.999276 -4.1576209 4 38
-7.6715169 -4.0865669 -3.875907 4 39
-7.6460848 -4.318418 -3.721823 4 40
-7.6316042 -4.5437002 -3.547648 4 41
-7.5644079 -4.7930379 -3.5030551 4 42
-7.485467 -5.0606132 -3.3676741 4 43
-7.4179769 -5.308238 -3.2587061 4 44
-7.4611249 -5.5611229 -3.078485 4 45
-7.3662791 -5.8180528 -3.086113 4 46
-7.3344431 -6.0977941 -3.0791631 4 47
-7.2101889 -6.3341909 -3.056139 4 48
-7.1811738 -6.6703959 -2.990013 3 49
-7.0245848 -6.939498 -2.872735 3 50
-7.0326109 -7.2266512 -2.7508381 3 51
-6.9521108 -7.451149 -2.690732 3 52
-6.908887 -7.7029062 -2.558537 3 53
-6.7770849 -8.0383682 -2.5215011 3 54
-6.592494 -8.2200279 -2.471761 3 55
-6.5825281 -8.5006542 -2.456136 3 56
-6.5078459 -8.7675762 -2.407233 3 57
-6.390729 -9.0154381 -2.416507 3 58
-6.358172 -9.3283062 -2.3728051 3 59
-6.2120242 -9.5504895 -2.3131881 3 60
-6.0797701 -9.7847443 -2.279604 4 61
-5.9080902 -10.0258303 -2.2782049 4 62
-6.0273199 -10.2925196 -2.1356981 4 63
-5.886241 -10.4748202 -2.0468431 4 64
-5.8061342 -10.7747498 -1.979369 4 65
-5.6650439 -11.01021 -2.0067461 4 66
-5.596889 -11.30795 -1.949585 4 67
-5.5154891 -11.5070105 -1.886801 4 68
-5.4581352 -11.7656298 -1.8170851 4 69
-5.3554931 -12.0913401 -1.7974891 4 70
-5.2098942 -12.3805905 -1.73806 4 71
-5.1120091 -12.6038904 -1.658054 4 72
-10.3318005 5.242218 -6.3370738 3 73
-10.1966896 5.0513291 -6.3812099 3 74
-10.1028204 4.759243 -6.4039388 3 75
-10.0052204 4.4972329 -6.449771 3 76
-9.8741236 4.2450662 -6.4878822 3 77
-9.794713 3.9965862 -6.5696688 3 78
-9.7289667 3.786532 -6.5923062 3 79
-9.6225405 3.554364 -6.5917421 3 80
-9.4906893 3.250566 -6.6781569 3 81
-9.3592501 3.034174 -6.7880469 3 82
-9.2767096 2.7707231 -6.753532 3 83
-9.1662026 2.5081949 -6.6372628 3 84
-9.0233946 2.2494841 -6.5509939 4 85
-8.9378862 1.999756 -6.5211458 4 86
-8.8629046 1.759359 -6.5089011 4 87
-8.7590361 1.453228 -6.452641 4 88
-8.6264487 1.174091 -6.4187689 4 89
-8.5495463 0.9103762 -6.41748 4 90
-8.4001494 0.740746 -6.3924122 4 91
-8.2758865 0.4552951 -6.3880892 4 92
-8.2669516 0.2604947 -6.262866 4 93
-8.2225695 -0.0287452 -6.1535668 4 94
-8.2233458 -0.284142 -6.1022139 4 95
-8.156724 -0.4973111 -5.901556 4 96
-8.1376162 -0.7154804 -5.7453752 3 97
-7.9968138 -1.001076 -5.70994 3 98
-7.896996 -1.221725 -5.654594 3 99
-7.9198962 -1.4773001 -5.4723501 3 100
-7.8454752 -1.7759 -5.4196182 3 101
-7.8094659 -2.0196581 -5.2794719 3 102
-7.78406 -2.288281 -5.1995869 3 103
-7.7217231 -2.532207 -5.039968 3 104
-7.6629591 -2.801348 -4.980816 3 105
-7.592763 -3.0034411 -4.769444 3 106
-7.5423589 -3.220201 -4.5823713 3 107
-7.4659109 -3.4378231 -4.4550748 3 108
-7.4727812 -3.656209 -4.2441039 4 109
-7.475936 -3.8347011 -4.051991 4 110
-7.3986578 -4.052125 -3.871645 4 111
-7.408525 -4.2532649 -3.6735401 4 112
-7.3719382 -4.4590121 -3.501724 4 113
-7.346025 -4.76089 -3.4451471 4 114
-7.3080192 -4.946579 -3.321301 4 115
-7.2962451 -5.1660171 -3.110801 4 116
-7.2594161 -5.4797602 -3.079309 4 117
-7.144618 -5.7705851 -2.9697102 4 118
-7.0684018 -6.04913 -3.023705 4 119
-7.0336661 -6.2993479 -2.934347 4 120
-6.9201398 -6.5719462 -2.922817 3 121
-6.8980742 -6.826376 -2.8255949 3 122
-6.7747998 -7.143393 -2.6968851 3 123
-6.769898 -7.3622122 -2.507062 3 124
-6.755477 -7.6304069 -2.44431 3 125
-6.6101771 -7.876432 -2.427414 3 126
-6.4763918 -8.1685715 -2.37709 3 127
-6.349299 -8.4228363 -2.3904979 3 128
-6.3100271 -8.7292481 -2.323257 3 129
-6.2835722 -8.9418068 -2.2453461 3 130
-6.1506319 -9.1748829 -2.2254751 3 131
-6.0752149 -9.4583302 -2.124536 3 132
-5.890822 -9.7015152 -2.1414881 4 133
-5.8096171 -9.9362488 -2.1388719 4 134
-5.7531839 -10.2002201 -2.054492 4 135
-5.701108 -10.4172497 -2.035619 4 136
-5.61093 -10.7228604 -1.933178 4 137
-5.4812799 -10.9623404 -1.855397 4 138
-5.4637561 -11.1997805 -1.72217 4 139
-5.3509822 -11.4498396 -1.638986 4 140
-5.288774 -11.7258997 -1.654264 4 141
-5.1902061 -11.9984504 -1.6390651 4 142
-5.052999 -12.2868099 -1.5816701 4 143
-4.8743902 -12.4849901 -1.684729 4 144
-10.0295696 5.3970432 -6.4622679 3 145
-9.9640018 5.1568341 -6.5160098 3 146
-9.869771 4.9188108 -6.4912563 3 147
-9.8110476 4.6114531 -6.544106 3 148
-9.6219378 4.3445749 -6.4878021 3 149
-9.5317068 4.1487408 -6.5645919 3 150
-9.4414931 3.866019 -6.5394168 3 151
-9.352231 3.672081 -6.5601778 3 152
-9.2641592 3.365129 -6.6437068 3 153
-9.1194429 3.080184 -6.6059771 3 154
-8.9564142 2.810647 -6.759387 3 155
-8.9227266 2.5901771 -6.5744949 3 156
-8.855033 2.3391371 -6.5126848 4 157
-8.7000971 2.1195791 -6.4201122 4 158
-8.6028528 1.8373521 -6.3940792 4 159
-8.5378123 1.594667 -6.3528609 4 160
-8.4300032 1.32408 -6.3073249 4 161
-8.3629103 1.091431 -6.274734 4 162
-8.2594843 0.8385282 -6.2114 4 163
-8.0966158 0.6334014 -6.1754742 4 164
-8.0456591 0.3649335 -6.069325 4 165
-8.0012178 0.0684791 -6.0987558 4 166
-7.9385462 -0.1633973 -5.9440608 4 167
-7.988339 -0.4312873 -5.7563248 4 168
-7.9375892 -0.5909562 -5.6199012 3 169
-7.8279872 -0.894342 -5.5693569 3 170
-7.8089299 -1.1180381 -5.4154701 3 171
-7.7299929 -1.394722 -5.3427072 3 172
-7.6248031 -1.640384 -5.2427092 3 173
-7.5946861 -1.905389 -5.1671672 3 174
-7.550828 -2.1872721 -5.012723 3 175
-7.5131221 -2.450624 -4.9504352 3 176
-7.4185481 -2.7180209 -4.866212 3 177
-7.3431621 -2.9350892 -4.6766162 3 178
-7.2473269 -3.2184589 -4.5754361 3 179
-7.2048082 -3.3914371 -4.4262772 3 180
-7.194757 -3.5239921 -4.2060809 4 181
-7.161653 -3.7795871 -4.0183001 4 182
-7.1670122 -4.0138941 -3.91078 4 183
-7.1324682 -4.190218 -3.710897 4 184
-7.1297898 -4.4622159 -3.5245941 4 185
-7.0570211 -4.696187 -3.422334 4 186
-7.0845861 -4.944563 -3.221138 4 187
-6.9827782 -5.1190338 -3.1546421 4 188
-6.947722 -5.4043231 -3.0759101 4 189
-6.9119202 -5.6933198 -2.97625 4 190
-6.8311639 -5.9355588 -2.912631 4 191
-6.8173089 -6.2100968 -2.86316 4 192
-6.665999 -6.5247669 -2.790025 3 193
-6.627656 -6.7422872 -2.748626 3 194
-6.5531721 -7.000742 -2.5706589 3 195
-6.500464 -7.265369 -2.4598279 3 196
-6.4755159 -7.4969812 -2.374336 3 197
-6.3912969 -7.7848382 -2.3478179 3 198
-6.287488 -8.1199036 -2.275255 3 199
-6.1941519 -8.3157253 -2.1986711 3 200
-6.0769239 -8.5958233 -2.2103069 3 201
-6.0295148 -8.8390446 -2.0867651 3 202
-6.0149932 -9.1203156 -1.921644 3 203
-5.811954 -9.3427067 -1.969236 3 204
-5.7282272 -9.6044617 -1.929469 4 205
-5.5915351 -9.7654495 -1.995136 4 206
-5.4922991 -10.0744896 -1.921711 4 207
-5.4097619 -10.3755798 -1.882887 4 208
-5.3315501 -10.6088801 -1.777735 4 209
-5.3045631 -10.8653898 -1.7012301 4 210
-5.202662 -11.1578503 -1.6278661 4 211
-5.131413 -11.3840399 -1.6000771 4 212
-5.0921998 -11.6047697 -1.516531 4 213
-4.901547 -11.9432698 -1.5848071 4 214
-4.8238001 -12.1561499 -1.556671 4 215
-4.6449628 -12.3667002 -1.61702 4 216
-9.7368403 5.5097089 -6.4607311 3 217
-9.7115374 5.2455402 -6.4239569 3 218
-9.5991259 5.023015 -6.5128389 3 219
-9.4829302 4.7637921 -6.590796 3 220
-9.3781672 4.4963041 -6.5504909 3 221
-9.2824221 4.2072949 -6.575778 3 222
-9.2031946 4.0022521 -6.5455461 3 223
-9.1227026 3.76206 -6.5782419 3 224
-8.9513044 3.4480829 -6.595839 3 225
-8.8754302 3.2406831 -6.5308271 3 226
-8.7946463 2.9634062 -6.5535651 3 227
-8.6752844 2.6961789 -6.4932442 3 228
-8.5648203 2.43377 -6.4283209 4 229
-8.5105315 2.190011 -6.3938971 4 230
-8.4128962 1.971978 -6.3070459 4 231
-8.3088055 1.71801 -6.2199721 4 232
-8.2551031 1.424305 -6.1239228 4 233
-8.173728 1.191035 -6.1101599 4 234
-8.0439177 1.0055389 -6.076066 4 235
-7.9510512 0.7224936 -5.9919792 4 236
-7.814466 0.4328332 -6.041564 4 237
-7.752707 0.216043 -5.9112912 4 238
-7.727582 -0.0329413 -5.877141 4 239
-7.648438 -0.3253617 -5.6758681 4 240
-7.7163248 -0.5420586 -5.4933758 3 241
-7.64817 -0.7769341 -5.345603 3 242
-7.5420981 -1.005661 -5.2878909 3 243
-7.49791 -1.304073 -5.2364478 3 244
-7.458117 -1.569008 -5.1617999 3 245
-7.376792 -1.8222491 -5.0421 3 246
-7.3541041 -2.012027 -4.875896 3 247
-7.295506 -2.3044009 -4.84999 3 248
-7.2076502 -2.564281 -4.7524829 3 249
-7.0789542 -2.844269 -4.6650338 3 250
-7.0274458 -3.0948041 -4.5130372 3 251
-6.9410602 -3.2646999 -4.399343 3 252
-6.9542342 -3.546978 -4.2441669 4 253
-6.8587032 -3.771466 -4.109158 4 254
-6.8326769 -3.913296 -3.859647 4 255
-6.8692942 -4.12603 -3.6540799 4 256
-6.8331442 -4.3492131 -3.5007141 4 257
-6.8362041 -4.5381041 -3.2733491 4 258
-6.8035631 -4.8349209 -3.2108419 4 259
-6.7706042 -5.1066122 -2.991637 4 260
-6.724042 -5.3212838 -2.959725 4 261
-6.6252599 -5.6424051 -2.9328092 4 262
-6.547513 -5.8344412 -2.8272519 4 263
-6.5266071 -6.1340909 -2.7255841 4 264
-6.4454909 -6.4085798 -2.662036 3 265
-6.356267 -6.679667 -2.615443 3 266
-6.3184748 -6.963491 -2.4560449 3 267
-6.287787 -7.2018881 -2.419539 3 268
-6.179244 -7.4558492 -2.363102 3 269
-6.06182 -7.7031331 -2.2943621 3 270
-6.0204921 -7.971034 -2.1941309 3 271
-6.0117202 -8.1703215 -2.062408 3 272
-5.9250732 -8.4673233 -2.023257 3 273
-5.8526512 -8.7410107 -1.852945 3 274
-5.8013892 -8.9878864 -1.747831 3 275
-5.7094679 -9.2135792 -1.836097 3 276
-5.5561691 -9.4861317 -1.788193 4 277
-5.4024062 -9.762909 -1.792053 4 278
-5.269258 -10.0086899 -1.85013 4 279
-5.1934848 -10.2338801 -1.8250491 4 280
-5.133472 -10.5574599 -1.632667 4 281
-5.0624452 -10.7439299 -1.588149 4 282
-4.9793358 -11.0330801 -1.502174 4 283
-4.8994198 -11.2981396 -1.469874 4 284
-4.769156 -11.5369797 -1.42161 4 285
-4.6936989 -11.8536998 -1.372461 4 286
-4.599524 -12.0974197 -1.39411 4 287
-4.4557481 -12.2609301 -1.455591 4 288
-9.4956007 5.6415262 -6.3965101 3 289
-9.4320269 5.347239 -6.5604449 3 290
-9.3665991 5.1155748 -6.526155 3 291
-9.2313013 4.859315 -6.4860411 3 292
-9.1487475 4.5913449 -6.561038 3 293
-9.0895262 4.352129 -6.5296932 3 294
-8.935525 4.101212 -6.4868102 3 295
-8.8705816 3.848609 -6.4894629 3 296
-8.7199316 3.5715871 -6.4981432 3 297
-8.5822039 3.3308301 -6.4707918 3 298
-8.4977579 3.0235729 -6.454329 3 299
-8.4507971 2.841318 -6.35288 3 300
-8.3859835 2.515548 -6.3157239 4 301
-8.2748919 2.3082571 -6.2530971 4 302
-8.1960154 2.06514 -6.0646281 4 303
-8.1544027 1.85638 -5.999999 4 304
-8.0456381 1.574467 -6.0307102 4 305
-7.9270702 1.298406 -5.897573 4 306
-7.8667288 1.0473681 -5.915359 4 307
-7.7591119 0.844215 -5.8394928 4 308
-7.6242419 0.5655017 -5.839851 4 309
-7.598125 0.3005719 -5.7579541 4 310
-7.5311632 0.0419335 -5.662199 4 311
-7.4819942 -0.166965 -5.517324 4 312
-7.480372 -0.4538007 -5.3752928 3 313
-7.4478879 -0.6349759 -5.25663 3 314
-7.357554 -0.9543338 -5.144043 3 315
-7.2826762 -1.158544 -5.0640688 3 316
-7.218946 -1.454562 -5.049026 3 317
-7.1191511 -1.70697 -4.9286662 3 318
-7.117578 -1.943362 -4.81141 3 319
-7.0570841 -2.237448 -4.705308 3 320
-6.963202 -2.5169001 -4.6585598 3 321
-6.8546572 -2.698503 -4.5246382 3 322
-6.7685938 -2.947119 -4.361332 3 323
-6.6801439 -3.204669 -4.346736 3 324
-6.6733222 -3.4459851 -4.170825 4 325
-6.5852862 -3.6793871 -4.031826 4 326
-6.6254969 -3.9412032 -3.896287 4 327
-6.5930662 -4.160964 -3.6688581 4 328
-6.617621 -4.281888 -3.472332 4 329
-6.557118 -4.484324 -3.2848981 4 330
-6.4771662 -4.7598562 -3.156549 4 331
-6.466723 -5.048574 -3.011591 4 332
-6.4123349 -5.3208571 -2.939594 4 333
-6.3574062 -5.592391 -2.989902 4 334
-6.3575029 -5.8419672 -2.7930031 4 335
-6.2928362 -6.0669408 -2.743726 4 336
-6.2242251 -6.3211622 -2.5906799 3 337
-6.1379919 -6.5853038 -2.530463 3 338
-6.0811009 -6.8650808 -2.482105 3 339
-5.993535 -7.1033578 -2.406188 3 340
-5.8805552 -7.3779822 -2.327023 3 341
-5.8427802 -7.6321039 -2.238734 3 342
-5.7475019 -7.8795042 -2.0981171 3 343
-5.7263398 -8.1312771 -1.984703 3 344
-5.7417612 -8.3432026 -1.836535 3 345
-5.6720481 -8.6318569 -1.720466 3 346
-5.6401239 -8.9089528 -1.5987131 3 347
-5.452622 -9.1921063 -1.645021 3 348
-5.3489199 -9.422966 -1.690741 4 349
-5.1759982 -9.6357785 -1.6937341 4 350
-5.100112 -9.896227 -1.665792 4 351
-4.9880128 -10.2086496 -1.6169191 4 352
-4.8275929 -10.39783 -1.5714081 4 353
-4.8314629 -10.6659899 -1.454847 4 354
-4.7723708 -10.9278898 -1.345821 4 355
-4.6939688 -11.2032204 -1.308995 4 356
-4.5473209 -11.4532099 -1.310952 4 357
-4.5131092 -11.7009497 -1.271865 4 358
-4.419776 -12.0160198 -1.1925891 4 359
-4.345963 -12.1873102 -1.226254 4 360
-9.2678166 5.661777 -6.6463919 3 361
-9.1407747 5.4856363 -6.5839629 3 362
-9.0750799 5.2189942 -6.457923 3 363
-8.9536582 4.9361192 -6.4705272 3 364
-8.905715 4.707428 -6.5251661 3 365
-8.8099222 4.4281979 -6.5554939 3 366
-8.6857634 4.1476989 -6.4634619 3 367
-8.5975237 3.932075 -6.4636913 3 368
-8.507123 3.692889 -6.4470911 3 369
-8.3911352 3.4277959 -6.3277788 3 370
-8.289712 3.154381 -6.3194952 3 371
-8.157382 2.940274 -6.2977438 3 372
-8.1163855 2.7027121 -6.2079291 4 373
-8.0845346 2.46469 -6.0745859 4 374
-8.0404634 2.21379 -5.942773 4 375
-7.9736782 1.934311 -5.8862662 4 376
-7.857041 1.719379 -5.818183 4 377
-7.7219572 1.443951 -5.7612629 4 378
-7.6974359 1.16824 -5.7316609 4 379
-7.569295 0.8686148 -5.7109919 4 380
-7.4306731 0.6520276 -5.683713 4 381
-7.340806 0.4013009 -5.588902 4 382
-7.3456869 0.1510587 -5.4805122 4 383
-7.27702 -0.0800166 -5.390203 4 384
-7.2651382 -0.3116231 -5.241858 3 385
-7.18646 -0.5843949 -5.148015 3 386
-7.1430101 -0.8385167 -5.0112209 3 387
-7.0869088 -1.093032 -4.875422 3 388
-6.944015 -1.340155 -4.9521352 3 389
-6.9402762 -1.613822 -4.8516832 3 390
-6.8819208 -1.881157 -4.7340122 3 391
-6.8059531 -2.1216021 -4.5988631 3 392
-6.707242 -2.3303039 -4.5722971 3 393
-6.6215911 -2.569988 -4.473536 3 394
-6.5901652 -2.8284171 -4.321794 3 395
-6.4893389 -3.1087611 -4.2455168 3 396
-6.396451 -3.42553 -4.1344962 4 397
-6.3427148 -3.6602891 -4.083076 4 398
-6.345561 -3.907369 -3.897199 4 399
-6.3239832 -4.161355 -3.712934 4 400
-6.2745218 -4.3212061 -3.510639 4 401
-6.2616782 -4.52073 -3.2949941 4 402
-6.2657352 -4.7808671 -3.1093571 4 403
-6.1957769 -5.013485 -3.0293379 4 404
-6.172709 -5.2610369 -2.953836 4 405
-6.1232438 -5.5113502 -2.8433772 4 406
-6.082664 -5.7633562 -2.7657371 4 407
-5.9969492 -5.9637652 -2.712343 4 408
-5.910256 -6.2307959 -2.617743 3 409
-5.819026 -6.514905 -2.5848251 3 410
-5.8260341 -6.7729049 -2.404227 3 411
-5.7147722 -7.0599709 -2.327163 3 412
-5.643178 -7.3165498 -2.2341001 3 413
-5.596335 -7.5636549 -2.193496 3 414
-5.5694208 -7.7431722 -2.0201211 3 415
-5.5363112 -8.0603466 -1.845084 3 416
-5.4974451 -8.2531471 -1.717961 3 417
-5.4698339 -8.5166245 -1.5965181 3 418
-5.4101758 -8.8097763 -1.561755 3 419
-5.239234 -9.08391 -1.529279 3 420
-5.1188922 -9.3274613 -1.53562 4 421
-5.035727 -9.5772038 -1.503881 4 422
-4.847733 -9.8288784 -1.548183 4 423
-4.7916999 -10.0599299 -1.474978 4 424
-4.6574669 -10.3337202 -1.396256 4 425
-4.605721 -10.5947504 -1.317995 4 426
-4.504262 -10.8579398 -1.281005 4 427
-4.4675541 -11.0879803 -1.219269 4 428
-4.349752 -11.3508597 -1.201619 4 429
-4.2690182 -11.64816 -1.163898 4 430
-4.1499672 -11.8608904 -1.117674 4 431
-4.171658 -12.0329199 -0.996976 4 432
-9.0236444 5.8161493 -6.5984679 3 433
-8.9176626 5.6105771 -6.5197292 3 434
-8.8062868 5.3126421 -6.4795928 3 435
-8.72087 5.0486302 -6.4155989 3 436
-8.6340399 4.8174629 -6.4406019 3 437
-8.5308428 4.5708909 -6.4561548 3 438
-8.4706946 4.2911649 -6.350863 3 439
-8.2971544 4.0517812 -6.3641391 3 440
-8.2364245 3.8325131 -6.3603258 3 441
-8.1087875 3.523953 -6.344079 3 442
-8.0587587 3.320158 -6.2608562 3 443
-7.9768128 3.0072761 -6.1431208 3 444
-7.923493 2.792697 -6.0952849 4 445
-7.8245549 2.565135 -5.9893012 4 446
-7.7939792 2.3358181 -5.8350272 4 447
-7.7568751 2.0647221 -5.732935 4 448
-7.6055312 1.7928801 -5.710794 4 449
-7.532033 1.518845 -5.6700268 4 450
-7.4103561 1.2467981 -5.6390362 4 451
-7.3660169 1.0404691 -5.5487252 4 452
-7.2799859 0.7702365 -5.518414 4 453
-7.152463 0.5254655 -5.4712148 4 454
-7.1160612 0.2720513 -5.3501539 4 455
-7.0175581 0.0096154 -5.253386 4 456
-7.0499768 -0.2307496 -5.059525 3 457
-6.9546332 -0.5111127 -5.072278 3 458
-6.8990322 -0.7247663 -4.9820552 3 459
-6.7685209 -0.9916988 -4.959427 3 460
-6.7490049 -1.2913031 -4.8248992 3 461
-6.6648679 -1.50059 -4.7401281 3 462
-6.5988422 -1.794274 -4.6609159 3 463
-6.5981531 -2.039083 -4.5369792 3 464
-6.457017 -2.220803 -4.41888 3 465
-6.3280382 -2.5048011 -4.368115 3 466
-6.296741 -2.778076 -4.2039819 3 467
-6.2281518 -3.0501201 -4.1901569 3 468
-6.142983 -3.273036 -4.1697068 4 469
-6.0991998 -3.598563 -4.0189619 4 470
-6.0737181 -3.840821 -3.850136 4 471
-6.0524802 -4.0460672 -3.6671131 4 472
-6.0025492 -4.3105002 -3.489564 4 473
-5.9434252 -4.463428 -3.2985571 4 474
-5.969853 -4.702961 -3.109854 4 475
-5.9316258 -4.9472928 -3.0498819 4 476
-5.8531008 -5.2545438 -2.934134 4 477
-5.8038302 -5.4748578 -2.932926 4 478
-5.7579222 -5.6716032 -2.792845 4 479
-5.697558 -5.896234 -2.6181631 4 480
-5.6976629 -6.2062821 -2.5262139 3 481
-5.611516 -6.4327278 -2.514025 3 482
-5.5307231 -6.674901 -2.3704989 3 483
-5.500823 -6.9412452 -2.2433679 3 484
-5.3989358 -7.2150769 -2.2130859 3 485
-5.3562522 -7.4861021 -2.0436759 3 486
-5.3481302 -7.7368779 -1.8716692 3 487
-5.2630782 -7.9722682 -1.750577 3 488
-5.2095852 -8.1957817 -1.6626721 3 489
-5.1933718 -8.4528904 -1.510863 3 490
-5.0836539 -8.7192498 -1.3878681 3 491
-5.0513759 -8.9825994 -1.37983 3 492
-4.895454 -9.2181683 -1.322772 4 493
-4.8133703 -9.4517775 -1.356369 4 494
-4.7134781 -9.7388668 -1.2402671 4 495
-4.593565 -10.0099401 -1.27986 4 496
-4.5117979 -10.23526 -1.196278 4 497
-4.4696059 -10.5300198 -1.069999 4 498
-4.287529 -10.71521 -1.185228 4 499
-4.2124252 -11.0141096 -1.11527 4 500
-4.1049562 -11.26968 -1.017329 4 501
-4.022388 -11.4708996 -0.9879036 4 502
-4.020813 -11.7463599 -0.8848096 4 503
-3.86948 -11.9818096 -0.932394 4 504
-8.757186 5.897555 -6.4875708 3 505
-8.6954241 5.666308 -6.3854289 3 506
-8.603406 5.4529982 -6.4100828 3 507
-8.4902582 5.147203 -6.381249 3 508
-8.4125662 4.903482 -6.28053 3 509
-8.268817 4.660748 -6.3090911 3 510
-8.158761 4.408978 -6.355886 3 511
-8.0931444 4.1344581 -6.241065 3 512
-7.9467592 3.9017 -6.2323709 3 513
-7.9015532 3.690593 -6.2171512 3 514
-7.8210311 3.4068389 -6.161643 3 515
-7.7273779 3.1192119 -6.0680909 3 516
-7.6290999 2.88764 -5.97396 4 517
-7.5833202 2.60534 -5.830143 4 518
-7.59792 2.4079731 -5.7303672 4 519
-7.5883818 2.1355231 -5.6153088 4 520
-7.4084158 1.861104 -5.593441 4 521
-7.285594 1.657831 -5.6014438 4 522
-7.217463 1.36727 -5.4414521 4 523
-7.1367641 1.082309 -5.4328022 4 524
-7.025722 0.8723208 -5.3730812 4 525
-6.9498448 0.6417289 -5.2888899 4 526
-6.876266 0.3417211 -5.237998 4 527
-6.8449912 0.0336299 -5.1486559 4 528
-6.814498 -0.1489673 -4.9325552 3 529
-6.7107802 -0.4029355 -4.88685 3 530
-6.6497851 -0.6304278 -4.880559 3 531
-6.5828872 -0.9104562 -4.7983389 3 532
-6.5030089 -1.1923651 -4.7510729 3 533
-6.4493671 -1.4115631 -4.5667162 3 534
-6.3965578 -1.731792 -4.5083351 3 535
-6.3756189 -1.927532 -4.338902 3 536
-6.293778 -2.173151 -4.3415952 3 537
-6.127202 -2.4201529 -4.199151 3 538
-6.1131702 -2.6922841 -4.087378 3 539
-5.9908128 -2.9588612 -4.1074472 3 540
-5.9029632 -3.2119579 -4.032105 4 541
-5.881587 -3.4912181 -3.896399 4 542
-5.8564248 -3.753609 -3.7738931 4 543
-5.767478 -3.97257 -3.6628089 4 544
-5.7180763 -4.1863079 -3.4822281 4 545
-5.7065249 -4.4367409 -3.3105831 4 546
-5.6900931 -4.6692472 -3.1901081 4 547
-5.6962438 -4.8802962 -3.027704 4 548
-5.6325159 -5.1059918 -2.9149362 4 549
-5.4903498 -5.365387 -2.853359 4 550
-5.5214911 -5.5934329 -2.677069 4 551
-5.4673071 -5.860705 -2.609664 4 552
-5.383348 -6.1113229 -2.501848 3 553
-5.370255 -6.3982949 -2.420027 3 554
-5.2882381 -6.5900288 -2.2712231 3 555
-5.2620292 -6.8480148 -2.112915 3 556
-5.2114959 -7.1134982 -2.0522759 3 557
-5.1647372 -7.3885951 -1.909372 3 558
-5.0975571 -7.6287079 -1.772637 3 559
-5.0879259 -7.8365851 -1.6614111 3 560
-4.9958382 -8.0943317 -1.494329 3 561
-4.9376202 -8.3285875 -1.371735 3 562
-4.8440152 -8.60462 -1.361668 3 563
-4.7979498 -8.8521976 -1.330071 3 564
-4.6889239 -9.107481 -1.2363631 4 565
-4.5494509 -9.3449707 -1.237164 4 566
-4.4861312 -9.6244831 -1.167249 4 567
-4.3500438 -9.8342972 -1.195382 4 568
-4.323637 -10.1090403 -0.9788476 4 569
-4.2211971 -10.3696604 -1.009285 4 570
-4.0725169 -10.6848297 -0.9499226 4 571
-3.990391 -10.9128304 -0.9563284 4 572
-3.8800112 -11.1325703 -0.9135218 4 573
-3.8350389 -11.4782896 -0.8112364 4 574
-3.7106359 -11.6617899 -0.775136 4 575
-3.673136 -11.9201098 -0.8143568 4 576
-8.5793467 5.975081 -6.230556 3 577
-8.4686289 5.7809992 -6.307262 3 578
-8.3285856 5.532948 -6.292089 3 579
-8.2517157 5.276556 -6.247922 3 580
-8.1216745 5.0286732 -6.2443109 3 581
-8.046525 4.7860141 -6.229928 3 582
-7.944018 4.5346098 -6.2019029 3 583
-7.8155031 4.222332 -6.1217198 3 584
-7.7532072 4.0305152 -6.0576258 3 585
-7.6719752 3.7502229 -6.086421 3 586
-7.604959 3.5249031 -5.978087 3 587
-7.494824 3.27073 -5.93007 3 588
-7.4057799 2.989748 -5.8420582 4 589
-7.397058 2.7785251 -5.7112899 4 590
-7.2727962 2.4937079 -5.6813641 4 591
-7.3622198 2.23542 -5.46559 4 592
-7.2090859 1.984005 -5.4617539 4 593
-7.0829191 1.725986 -5.4339328 4 594
-6.978581 1.459163 -5.400939 4 595
-6.8942752 1.264746 -5.276866 4 596
-6.847034 0.9868064 -5.1885052 4 597
-6.720942 0.7241578 -5.102015 4 598
-6.7235499 0.4866414 -5.0775762 4 599
-6.5997381 0.1594605 -5.0112619 4 600
-6.555327 -0.0802178 -4.837842 3 601
-6.4741931 -0.2841229 -4.7960572 3 602
-6.4119249 -0.565227 -4.6881871 3 603
-6.357718 -0.8061795 -4.7029848 3 604
-6.3192868 -1.066709 -4.5461302 3 605
-6.197114 -1.323565 -4.4812689 3 606
-6.1645098 -1.59425 -4.3604698 3 607
-6.085526 -1.8567262 -4.31983 3 608
-5.9873552 -2.0799511 -4.2081819 3 609
-5.911345 -2.366549 -4.1167231 3 610
-5.8600402 -2.607527 -4.0239921 3 611
-5.749249 -2.9035672 -3.9178 3 612
-5.6880961 -3.13498 -3.8414072 4 613
-5.66117 -3.3812201 -3.7705679 4 614
-5.5756979 -3.6318181 -3.685117 4 615
-5.5638318 -3.8466412 -3.4847501 4 616
-5.4837771 -4.0845108 -3.3438189 4 617
-5.4367042 -4.3598032 -3.2229459 4 618
-5.3803611 -4.5975628 -3.1471939 4 619
-5.356576 -4.859222 -2.981842 4 620
-5.3537989 -5.0430551 -2.846138 4 621
-5.2721639 -5.29177 -2.8843502 4 622
-5.2523852 -5.5148402 -2.681649 4 623
-5.1959028 -5.7860461 -2.516407 4 624
-5.1492691 -6.0194058 -2.34108 3 625
-5.0603251 -6.2577071 -2.274482 3 626
-5.0637102 -6.5294328 -2.106705 3 627
-5.0282812 -6.7131281 -2.035995 3 628
-4.969184 -7.0073299 -1.860846 3 629
-4.9479208 -7.261509 -1.762435 3 630
-4.8927942 -7.5260258 -1.6272711 3 631
-4.8904648 -7.715518 -1.48533 3 632
-4.746574 -8.0401802 -1.417384 3 633
-4.6743832 -8.2607575 -1.385625 3 634
-4.643735 -8.4757786 -1.255021 3 635
-4.5693541 -8.7154541 -1.213299 3 636
-4.49544 -8.9585724 -1.049693 4 637
-4.36058 -9.2197952 -1.129526 4 638
-4.2266121 -9.5024128 -1.052184 4 639
-4.158165 -9.781868 -1.026052 4 640
-4.03335 -10.0208797 -1.01952 4 641
-3.960196 -10.2733698 -0.9355412 4 642
-3.878572 -10.5005598 -0.8825446 4 643
-3.7300301 -10.7673302 -0.84161 4 644
-3.7200151 -11.03473 -0.7323732 4 645
-3.586071 -11.3552904 -0.6991291 4 646
-3.5422101 -11.5907898 -0.6228524 4 647
-3.479435 -11.8020802 -0.5534811 4 648
-8.3616991 6.087574 -6.0924559 3 649
-8.2401514 5.8860798 -6.1721578 3 650
-8.1482573 5.6383119 -6.0944839 3 651
-7.981002 5.3797798 -6.173171 3 652
-7.900033 5.12749 -6.1367202 3 653
-7.863484 4.8774228 -6.0908518 3 654
-7.7596522 4.6191521 -6.0299048 3 655
-7.6336532 4.3428092 -5.964026 3 656
-7.5212112 4.1008539 -5.9536592 3 657
-7.4495459 3.8658632 -5.9127102 3 658
-7.3965292 3.6045041 -5.8359032 3 659
-7.3170691 3.3607869 -5.8035488 3 660
-7.2452102 3.115994 -5.6690851 4 661
-7.1689348 2.834101 -5.5725723 4 662
-7.1420641 2.5986581 -5.4976259 4 663
-7.0110898 2.342871 -5.4735022 4 664
-6.9480348 2.0492799 -5.345376 4 665
-6.880343 1.794351 -5.3081231 4 666
-6.7323852 1.5883681 -5.2606692 4 667
-6.6738019 1.320467 -5.2125282 4 668
-6.587863 1.02237 -5.1394982 4 669
-6.5195971 0.7997136 -5.0400472 4 670
-6.42908 0.5255809 -4.9992042 4 671
-6.4110332 0.3126369 -4.8856492 4 672
-6.28197 0.0510001 -4.8457042 3 673
-6.23351 -0.2419534 -4.679451 3 674
-6.2046499 -0.4527078 -4.581409 3 675
-6.1053381 -0.6982999 -4.5081148 3 676
-6.026402 -0.971418 -4.4463082 3 677
-5.940093 -1.2527321 -4.3521228 3 678
-5.882752 -1.502339 -4.250742 3 679
-5.8564372 -1.7093901 -4.1315889 3 680
-5.7892752 -1.993271 -4.06319 3 681
-5.6935931 -2.217624 -3.97538 3 682
-5.618526 -2.469446 -3.9163362 3 683
-5.5706549 -2.74087 -3.830247 3 684
-5.468976 -3.00876 -3.7475569 4 685
-5.3937159 -3.2594669 -3.6599441 4 686
-5.3423453 -3.5006969 -3.502676 4 687
-5.2955599 -3.7728529 -3.3891599 4 688
-5.2653971 -3.9879962 -3.2688141 4 689
-5.2405648 -4.239542 -3.158916 4 690
-5.1779242 -4.4929152 -3.001915 4 691
-5.1152959 -4.7353812 -2.907436 4 692
-5.107687 -4.971467 -2.7859741 4 693
-5.023654 -5.228549 -2.6220231 4 694
-4.9757862 -5.5122509 -2.566185 4 695
-4.9662628 -5.6800499 -2.3946979 4 696
-4.9133192 -5.9445582 -2.2857611 3 697
-4.8999238 -6.1961579 -2.0738289 3 698
-4.8336282 -6.4739661 -1.937636 3 699
-4.830462 -6.7173519 -1.825845 3 700
-4.7230668 -6.9141622 -1.787061 3 701
-4.6506992 -7.1798029 -1.676343 3 702
-4.721458 -7.380085 -1.474452 3 703
-4.6431732 -7.6129499 -1.417186 3 704
-4.5299702 -7.925181 -1.318193 3 705
-4.468092 -8.0943394 -1.178893 3 706
-4.449924 -8.3899937 -1.098528 3 707
-4.342052 -8.6504936 -1.021937 3 708
-4.1861839 -8.8407022 -1.048313 4 709
-4.0941768 -9.1645813 -1.088618 4 710
-3.985626 -9.4009094 -0.906335 4 711
-3.8980082 -9.6566086 -0.936574 4 712
-3.8086701 -9.9301758 -0.9321528 4 713
-3.7792781 -10.1724997 -0.7804365 4 714
-3.6584661 -10.4217596 -0.7277479 4 715
-3.6211469 -10.7093601 -0.6175585 4 716
-3.4717851 -10.94833 -0.62082 4 717
-3.4089341 -11.20644 -0.4944191 4 718
-3.353344 -11.4898901 -0.3987436 4 719
-3.3278051 -11.7342501 -0.3282738 4 720
-8.0950499 6.235724 -6.0562029 3 721
-8.003232 5.9852282 -6.0546241 3 722
-7.8753252 5.758297 -6.0036898 3 723
-7.7865439 5.4953079 -5.9426088 3 724
-7.7062831 5.2203808 -6.0206881 3 725
-7.6216269 4.956172 -5.966527 3 726
-7.477983 4.7314072 -5.986115 3 727
-7.3666391 4.4496889 -5.969771 3 728
-7.2993751 4.2254329 -5.861673 3 729
-7.193604 3.92979 -5.8155031 3 730
-7.1597681 3.718493 -5.741416 3 731
-7.0957589 3.47034 -5.6140652 3 732
-7.0203199 3.2379031 -5.575016 4 733
-6.9327002 2.9609722 -5.5774269 4 734
-6.8628192 2.6787081 -5.4483419 4 735
-6.7884021 2.450083 -5.340363 4 736
-6.7115469 2.193435 -5.2843442 4 737
-6.6557398 1.92811 -5.2019892 4 738
-6.5822649 1.6672321 -5.1164489 4 739
-6.3665819 1.408363 -5.1333842 4 740
-6.3480582 1.124229 -5.0223279 4 741
-6.263125 0.8622166 -4.9755368 4 742
-6.183557 0.6666665 -4.863226 4 743
-6.1376281 0.3851295 -4.8232918 4 744
-6.0925798 0.1062684 -4.643271 3 745
-5.9931612 -0.1486573 -4.5688658 3 746
-5.9425712 -0.3643899 -4.4380331 3 747
-5.877885 -0.5909601 -4.3678241 3 748
-5.7936073 -0.9325004 -4.3238011 3 749
-5.7173238 -1.121315 -4.2185202 3 750
-5.6172991 -1.384705 -4.1805649 3 751
-5.6017661 -1.6259151 -4.0136442 3 752
-5.5705819 -1.886322 -3.9197222 3 753
-5.506886 -2.1186631 -3.848636 3 754
-5.4170308 -2.430002 -3.7494481 3 755
-5.348321 -2.6467669 -3.711283 3 756
-5.2822218 -2.86712 -3.6194651 4 757
-5.2087512 -3.1606729 -3.4649761 4 758
-5.1243472 -3.3856139 -3.3685789 4 759
-5.1127882 -3.6290851 -3.2330191 4 760
-5.0469508 -3.8970152 -3.1648181 4 761
-5.0360222 -4.1159139 -3.038259 4 762
-5.016099 -4.406929 -2.889546 4 763
-4.942864 -4.644033 -2.8271411 4 764
-4.903234 -4.881392 -2.6568611 4 765
-4.7565141 -5.11555 -2.6106711 4 766
-4.771502 -5.3667278 -2.458442 4 767
-4.7669072 -5.594347 -2.2878089 4 768
-4.7337761 -5.862929 -2.116838 3 769
-4.6459341 -6.0837598 -2.005619 3 770
-4.5998302 -6.3005691 -1.847136 3 771
-4.599175 -6.5755382 -1.739411 3 772
-4.4725919 -6.8375821 -1.7509101 3 773
-4.453753 -7.0814371 -1.622519 3 774
-4.421433 -7.252439 -1.356164 3 775
-4.3800912 -7.5466419 -1.276688 3 776
-4.299438 -7.7933212 -1.170518 3 777
-4.2379232 -8.0190716 -1.055752 3 778
-4.1739688 -8.2695103 -0.9832288 3 779
-4.1061902 -8.507637 -0.9000998 3 780
-4.0093498 -8.8089047 -0.8910542 4 781
-3.839712 -9.0627155 -0.9768182 4 782
-3.785156 -9.3213234 -0.8993226 4 783
-3.7203431 -9.5422249 -0.7899866 4 784
-3.625139 -9.8009186 -0.7329159 4 785
-3.564281 -9.9797592 -0.6488714 4 786
-3.4327891 -10.3057003 -0.6360483 4 787
-3.3684731 -10.57024 -0.5722218 4 788
-3.262337 -10.8775998 -0.4330044 4 789
-3.2000351 -11.1454001 -0.4371347 4 790
-3.130316 -11.4084501 -0.3115864 4 791
-3.0432739 -11.6348896 -0.2668009 4 792
-7.822103 6.3391018 -6.0229731 3 793
-7.7395683 6.0908608 -5.9803462 3 794
-7.6585341 5.832882 -5.873384 3 795
-7.5599261 5.5850272 -5.949553 3 796