ITEM: TIMESTEP
219
ITEM: NUMBER OF ATOMS
85964
ITEM: BOX BOUNDS pp pp pp
-15.085 15.085
-15.085 15.085
-15.085 15.085
ITEM: ATOMS x y z type id
6.0502439 -11.1187296 5.1897602 3 1
6.0183592 -10.9492904 4.98703 3 2
6.0963669 -10.8826904 4.7712631 3 3
6.1991601 -10.7684698 4.5369411 3 4
6.1384168 -10.7033501 4.2294378 3 5
6.2132082 -10.4707499 4.035429 3 6
6.28583 -10.3028698 3.7968781 3 7
6.4009562 -10.1059904 3.6977651 3 8
6.5007229 -9.8552752 3.562496 3 9
6.641089 -9.7021857 3.3359981 3 10
6.6828289 -9.4319306 3.159395 3 11
6.7403841 -9.2946482 2.9448122 3 12
6.734673 -9.115159 2.636545 4 13
6.7870851 -8.9570304 2.506944 4 14
6.911828 -8.7416735 2.4108479 4 15
7.0112748 -8.561966 2.1699669 4 16
7.0380411 -8.3348847 2.0207191 4 17
7.189301 -8.0980444 1.839399 4 18
7.1792421 -7.9558358 1.652761 4 19
7.245266 -7.8255711 1.304731 4 20
7.257277 -7.709312 1.1379139 4 21
7.2170892 -7.5727921 0.9069592 4 22
7.2751279 -7.309361 0.6725688 4 23
7.3459711 -7.0698662 0.4397349 4 24
7.353322 -6.9233088 0.2659431 3 25
7.4686671 -6.784142 0.0411239 3 26
7.520411 -6.5904999 -0.15276 3 27
7.614924 -6.361958 -0.2633729 3 28
7.730505 -6.1550222 -0.3409448 3 29
7.7927079 -6.001368 -0.5752625 3 30
7.887787 -5.780262 -0.6704125 3 31
8.0320625 -5.5187869 -0.7869859 3 32
8.1093435 -5.2953701 -0.9531752 3 33
8.1462288 -5.1413002 -1.177998 3 34
8.3173695 -4.846058 -1.174057 3 35
8.3746987 -4.6287608 -1.2926871 3 36
8.5117111 -4.4305902 -1.4166091 4 37
8.5911789 -4.1659412 -1.5556931 4 38
8.7195874 -3.857367 -1.6679061 4 39
8.846264 -3.6265979 -1.775988 4 40
8.8494264 -3.3567491 -1.899727 4 41
8.97575 -3.2153001 -2.134665 4 42
9.0853081 -2.995605 -2.296654 4 43
9.1662731 -2.8046301 -2.5343001 4 44
9.2397156 -2.669693 -2.739825 4 45
9.3342877 -2.488735 -2.9377602 4 46
9.379324 -2.2156329 -3.092103 4 47
9.4007702 -2.0750871 -3.318259 4 48
9.4998741 -1.845552 -3.4443591 3 49
9.6308937 -1.749619 -3.6766401 3 50
9.7106705 -1.52545 -3.7929621 3 51
9.7858849 -1.391911 -4.04671 3 52
9.8225708 -1.099781 -4.1602311 3 53
9.9068786 -0.9087582 -4.36586 3 54
9.9540596 -0.7315559 -4.6111303 3 55
10.0306997 -0.5532379 -4.7862058 3 56
10.1355496 -0.3196259 -4.8932882 3 57
10.1609001 -0.0522137 -5.0937872 3 58
10.3431702 0.1749687 -5.131875 3 59
10.3504 0.3742504 -5.3513761 3 60
10.4299898 0.6324806 -5.4490342 4 61
10.5078898 0.7680016 -5.7471171 4 62
10.53086 1.000782 -5.8371659 4 63
10.6620999 1.155674 -5.982626 4 64
10.7485705 1.449123 -6.1689801 4 65
10.8123198 1.598751 -6.3726831 4 66
10.8547202 1.764174 -6.6036473 4 67
10.9531404 1.883656 -6.881672 4 68
10.96797 2.011606 -7.1164489 4 69
11.0247002 2.1010931 -7.396307 4 70
10.9833404 2.200752 -7.6356368 4 71
11.0557404 2.3988609 -7.8959132 4 72
5.7705922 -11.0525799 5.1412621 3 73
5.827734 -10.8302803 5.0394869 3 74
5.9234972 -10.7335997 4.7970228 3 75
6.0185671 -10.62253 4.544282 3 76
5.958901 -10.5152502 4.2916918 3 77
6.1088529 -10.3124704 4.0948229 3 78
6.1469832 -10.1412602 3.905784 3 79
6.280529 -9.8828956 3.8485712 3 80
6.291863 -9.7537737 3.6085279 3 81
6.4203019 -9.5213194 3.3675189 3 82
6.4361668 -9.3640127 3.152128 3 83
6.5013829 -9.1997395 2.9262272 3 84
6.562182 -9.0166731 2.7372451 4 85
6.5671158 -8.7910013 2.6017361 4 86
6.7090822 -8.6341238 2.360174 4 87
6.7515469 -8.4478398 2.262805 4 88
6.8057752 -8.2263613 2.010633 4 89
6.9309512 -8.0200644 1.850973 4 90
6.9690372 -7.8651528 1.614673 4 91
7.005785 -7.6886292 1.408491 4 92
7.0426602 -7.5755 1.185371 4 93
7.0591049 -7.4088168 0.9069592 4 94
7.055779 -7.2475319 0.7083869 4 95
7.0859952 -7.0574679 0.4486232 4 96
7.1595621 -6.8577838 0.2991881 3 97
7.1758452 -6.7369271 0.0197272 3 98
7.3130021 -6.5326882 -0.156733 3 99
7.3906121 -6.3740311 -0.2798924 3 100
7.4917379 -6.104023 -0.4443879 3 101
7.6046129 -5.8512402 -0.5377927 3 102
7.7087202 -5.6224771 -0.62069 3 103
7.8207231 -5.3417821 -0.7217546 3 104
7.8689942 -5.2078738 -0.936297 3 105
7.994589 -5.0244179 -1.043347 3 106
8.087965 -4.756105 -1.182917 3 107
8.1943474 -4.5260849 -1.329564 3 108
8.2492733 -4.2482219 -1.386969 4 109
8.401207 -4.0288539 -1.521521 4 110
8.5098076 -3.864929 -1.7547781 4 111
8.5721569 -3.6129091 -1.834242 4 112
8.661808 -3.411562 -2.019381 4 113
8.7246742 -3.212837 -2.2199791 4 114
8.8669834 -2.977798 -2.3856299 4 115
8.8751812 -2.8214209 -2.6198561 4 116
8.9973774 -2.582027 -2.7528329 4 117
9.1201525 -2.3827741 -2.927224 4 118
9.1684303 -2.1831441 -3.0804729 4 119
9.1864586 -1.9702 -3.288188 4 120
9.283804 -1.848852 -3.4848981 3 121
9.3732128 -1.628735 -3.639426 3 122
9.4727755 -1.394032 -3.776331 3 123
9.5781956 -1.206602 -3.939177 3 124
9.6007424 -1.0210691 -4.1375809 3 125
9.6616555 -0.8054237 -4.3348489 3 126
9.7854748 -0.670536 -4.5222039 3 127
9.8619652 -0.4255676 -4.69769 3 128
9.9206352 -0.2044487 -4.862113 3 129
9.997574 0.0615006 -4.9626242 3 130
10.1038799 0.3027153 -5.1101351 3 131
10.1586704 0.5456963 -5.2477269 3 132
10.2144203 0.7448616 -5.4729748 4 133
10.2959004 0.9272462 -5.6188741 4 134
10.3696804 1.1303101 -5.7895699 4 135
10.45679 1.3083691 -5.9813962 4 136
10.4932804 1.4603651 -6.2578802 4 137
10.60217 1.681545 -6.4111538 4 138
10.6310301 1.8330571 -6.633286 4 139
10.7277203 1.913883 -6.8761468 4 140
10.7221804 2.0514109 -7.1821771 4 141
10.8569604 2.21104 -7.2937331 4 142
10.85312 2.311249 -7.5985561 4 143
10.8280297 2.3875141 -7.8646222 4 144
5.5143171 -10.9947596 5.1938801 3 145
5.5701471 -10.80268 5.0503101 3 146
5.672308 -10.7086401 4.771442 3 147
5.689776 -10.4626999 4.5857373 3 148
5.7925968 -10.3726902 4.3250752 3 149
5.862206 -10.1849699 4.1424589 3 150
5.9301902 -9.9723788 3.979455 3 151
6.0150671 -9.750474 3.836299 3 152
6.0967698 -9.5331202 3.641048 3 153
6.165514 -9.3775635 3.482122 3 154
6.19627 -9.2167444 3.243145 3 155
6.27458 -9.0229902 3.0765469 3 156
6.400908 -8.7826433 2.8596872 4 157
6.3911328 -8.6490088 2.6479981 4 158
6.4611001 -8.4719391 2.454721 4 159
6.5677252 -8.3227673 2.2884669 4 160
6.6463418 -8.0735674 2.0646131 4 161
6.6638341 -7.9344602 1.8494642 4 162
6.729487 -7.7390342 1.691268 4 163
6.754839 -7.607399 1.411943 4 164
6.7642961 -7.503366 1.1586601 4 165
6.7793951 -7.2941108 0.9665732 4 166
6.8208509 -7.1406169 0.6906581 4 167
6.8764062 -6.948486 0.528667 4 168
6.916596 -6.7667122 0.296699 3 169
6.9962258 -6.6448398 0.0494227 3 170
7.0096421 -6.4885712 -0.209332 3 171
7.1160212 -6.249826 -0.3503499 3 172
7.2837639 -6.0147338 -0.459332 3 173
7.3504448 -5.802948 -0.5791707 3 174
7.4713159 -5.5213509 -0.6263928 3 175
7.5635362 -5.2981591 -0.7339654 3 176
7.626175 -5.0705032 -0.946736 3 177
7.7288981 -4.882833 -1.074404 3 178
7.8601608 -4.6050611 -1.25368 3 179
7.9448782 -4.4258352 -1.369032 3 180
8.0636444 -4.211081 -1.49523 4 181
8.1358242 -4.0182762 -1.66627 4 182
8.2240887 -3.8084979 -1.766739 4 183
8.2863503 -3.507565 -1.832642 4 184
8.4208203 -3.3174 -2.0368199 4 185
8.4965077 -3.1560099 -2.2214091 4 186
8.5580178 -2.943146 -2.443341 4 187
8.6744614 -2.6772371 -2.595196 4 188
8.76968 -2.4896891 -2.750515 4 189
8.8483028 -2.335274 -2.928572 4 190
8.9042282 -2.081604 -3.046191 4 191
9.0430908 -1.831955 -3.2030261 4 192
9.0986481 -1.611368 -3.3690441 3 193
9.1471996 -1.458786 -3.5815211 3 194
9.2189274 -1.265699 -3.7237649 3 195
9.3199921 -1.088562 -3.9480752 3 196
9.387106 -0.917904 -4.133749 3 197
9.4246083 -0.6733475 -4.3177128 3 198
9.5455094 -0.5086727 -4.490748 3 199
9.575182 -0.2611084 -4.6122308 3 200
9.7057858 -0.0703926 -4.8289953 3 201
9.7600479 0.1540642 -4.9285212 3 202
9.8274174 0.4398041 -5.1117082 3 203
9.9327012 0.6100273 -5.29354 3 204
9.9797974 0.8281327 -5.3416872 4 205
10.0840197 1.061909 -5.5396538 4 206
10.1331596 1.210506 -5.7781172 4 207
10.1826496 1.431965 -5.9807668 4 208
10.2491303 1.5963481 -6.1878781 4 209
10.3674898 1.823702 -6.345829 4 210
10.4009199 1.89521 -6.6241031 4 211
10.4187698 2.051193 -6.8516402 4 212
10.49366 2.187227 -7.083663 4 213
10.5831099 2.3381579 -7.306232 4 214
10.5975504 2.369297 -7.6066141 4 215
10.6168003 2.540649 -7.7658391 4 216
5.248765 -10.9615602 5.1481991 3 217
5.2913728 -10.8342104 4.948801 3 218
5.3505921 -10.6151696 4.7083559 3 219
5.4275608 -10.4158802 4.5025101 3 220
5.4988222 -10.2287598 4.3649168 3 221
5.5987821 -10.0305004 4.1876922 3 222
5.750166 -9.824666 4.061801 3 223
5.7996531 -9.6206064 3.872289 3 224
5.8813792 -9.4037523 3.675725 3 225
5.921074 -9.2633982 3.487829 3 226
5.9849502 -9.09097 3.3052149 3 227
6.0894651 -8.850913 3.1768279 3 228
6.1410971 -8.6746989 2.912256 4 229
6.2402411 -8.4565172 2.723644 4 230
6.2629972 -8.296238 2.555542 4 231
6.3367329 -8.1332359 2.381099 4 232
6.4186602 -7.9752712 2.2015431 4 233
6.4517179 -7.8175702 1.903144 4 234
6.4694181 -7.6481929 1.697048 4 235
6.5286451 -7.4594841 1.498489 4 236
6.5308881 -7.3067951 1.270475 4 237
6.5286951 -7.184937 1.025321 4 238
6.617127 -6.9965668 0.7935138 4 239
6.6222019 -6.8717608 0.5335479 4 240
6.648037 -6.6525193 0.3556056 3 241
6.8065129 -6.534977 0.1256499 3 242
6.8451748 -6.3648362 -0.1300817 3 243
6.8998042 -6.1787872 -0.3565869 3 244
6.9811082 -5.927599 -0.4839654 3 245
7.07482 -5.64954 -0.5444455 3 246
7.197031 -5.4065552 -0.7197042 3 247
7.3131089 -5.205935 -0.7808442 3 248
7.4105082 -4.971542 -0.9121138 3 249
7.4870949 -4.7733422 -1.0908819 3 250
7.5940919 -4.5022159 -1.150673 3 251
7.685679 -4.2895661 -1.3520041 3 252
7.7812372 -4.067533 -1.491271 4 253
7.8289528 -3.852732 -1.5949641 4 254
7.9560952 -3.655855 -1.7238601 4 255
8.0461769 -3.427193 -1.833579 4 256
8.1640568 -3.2637651 -2.0010719 4 257
8.2499523 -3.0218389 -2.227463 4 258
8.2595711 -2.799829 -2.421525 4 259
8.4258366 -2.589191 -2.5454221 4 260
8.4858914 -2.3829899 -2.7773731 4 261
8.5953655 -2.178509 -2.8406092 4 262
8.6961632 -1.903131 -3.04057 4 263
8.7650528 -1.716448 -3.154093 4 264
8.8339749 -1.516693 -3.35954 3 265
8.9214516 -1.301651 -3.4951921 3 266
8.9898854 -1.138872 -3.678082 3 267
9.0748234 -0.8847714 -3.7856601 3 268
9.1810627 -0.7347221 -4.0711641 3 269
9.2019253 -0.5384598 -4.256279 3 270
9.2450066 -0.34375 -4.4837189 3 271
9.3525658 -0.1352119 -4.6190019 3 272
9.4292622 0.1276684 -4.7554021 3 273
9.5268078 0.2024307 -4.99119 3 274
9.6062927 0.4819069 -5.0426931 3 275
9.648468 0.7118835 -5.2805891 3 276
9.7554989 0.8995934 -5.422709 4 277
9.8050709 1.111679 -5.5295129 4 278
9.855568 1.353064 -5.735157 4 279
9.9394876 1.498199 -5.9875322 4 280
10.03755 1.726372 -6.2173638 4 281
10.0584297 1.837255 -6.4184842 4 282
10.1094503 2.0398641 -6.6117158 4 283
10.1467304 2.138638 -6.9185182 4 284
10.2086096 2.330015 -7.0913782 4 285
10.3019695 2.4238889 -7.271472 4 286
10.3213301 2.4947851 -7.5409541 4 287
10.3827896 2.6211469 -7.7412639 4 288
5.0658569 -10.77423 5.1976638 3 289
5.0477738 -10.7705603 4.9299998 3 290
5.0958371 -10.5905504 4.6443801 3 291
5.1745992 -10.33459 4.4835029 3 292
5.2658558 -10.1610699 4.3443999 3 293
5.4165139 -9.8986864 4.2826018 3 294
5.4579449 -9.6851359 4.0836978 3 295
5.569573 -9.4598246 3.916709 3 296
5.6329942 -9.2947455 3.7360721 3 297
5.6814351 -9.0963945 3.543819 3 298
5.8052368 -8.9477186 3.3893261 3 299
5.880385 -8.6548453 3.1862669 3 300
5.928114 -8.4864044 3.040309 4 301
5.947114 -8.2813702 2.8331809 4 302
5.996205 -8.11133 2.611362 4 303
6.1654692 -7.922657 2.493547 4 304
6.163199 -7.8452312 2.178081 4 305
6.1947541 -7.707561 1.986804 4 306
6.2887502 -7.4840999 1.7546001 4 307
6.2987518 -7.3547359 1.5557131 4 308
6.32164 -7.2527428 1.3284741 4 309
6.2983332 -7.0766621 1.018575 4 310
6.3856511 -6.8764548 0.8533264 4 311
6.4015508 -6.7047248 0.6215453 4 312
6.4458432 -6.5428911 0.3364539 3 313
6.5431218 -6.3555532 0.1596828 3 314
6.6099363 -6.1963558 -0.0412393 3 315
6.6980462 -5.9730492 -0.2472901 3 316
6.7747922 -5.795712 -0.3808389 3 317
6.8405142 -5.5650621 -0.5247159 3 318
6.940115 -5.330864 -0.6408525 3 319
7.0203562 -5.1196728 -0.7748246 3 320
7.1597452 -4.8804908 -0.931399 3 321
7.2360859 -4.634161 -1.040596 3 322
7.3277731 -4.3981509 -1.1567251 3 323
7.4120011 -4.1876831 -1.2670831 3 324
7.5723181 -3.94313 -1.38563 4 325
7.6010628 -3.742142 -1.5591491 4 326
7.7233401 -3.5089 -1.684554 4 327
7.794549 -3.2918701 -1.885226 4 328
7.930274 -3.124989 -2.0284331 4 329
8.0151234 -2.894865 -2.1479631 4 330
8.09272 -2.6254771 -2.3377669 4 331
8.2172012 -2.3651049 -2.466784 4 332
8.2798176 -2.1777461 -2.652489 4 333
8.3215981 -2.0094831 -2.78876 4 334
8.442276 -1.753834 -2.936341 4 335
8.4711914 -1.601772 -3.1436679 4 336
8.5292912 -1.341827 -3.310585 3 337
8.6389656 -1.200588 -3.4858561 3 338
8.7289315 -1.006922 -3.6807959 3 339
8.8417206 -0.7512017 -3.7851451 3 340
8.9425136 -0.5829067 -4.0182371 3 341
8.9800148 -0.4212494 -4.195055 3 342
9.0153141 -0.2225933 -4.4549718 3 343
9.1012001 -0.0404549 -4.647049 3 344
9.1940003 0.2509842 -4.7405291 3 345
9.2664032 0.3913574 -4.9700232 3 346
9.2891522 0.5682774 -5.1466322 3 347
9.3524056 0.7766266 -5.213727 3 348
9.4533234 0.9992944 -5.4901762 4 349
9.508318 1.220234 -5.605063 4 350
9.6531544 1.392826 -5.7946949 4 351
9.7013846 1.631546 -5.959807 4 352
9.7542038 1.770168 -6.217011 4 353
9.7895413 1.928965 -6.4310041 4 354
9.8444596 2.1049211 -6.644589 4 355
9.8749046 2.2689481 -6.865303 4 356
9.9654922 2.376751 -7.04321 4 357
10.0173197 2.5438211 -7.292738 4 358
10.0795097 2.6156581 -7.5556679 4 359
10.1949596 2.772537 -7.752759 4 360
4.7843251 -10.63764 5.1333709 3 361
4.8013039 -10.6209202 4.883647 3 362
4.9002228 -10.4675303 4.6966491 3 363
4.9501162 -10.2488499 4.538394 3 364
5.0540009 -9.9910804 4.4222102 3 365
5.1501908 -9.7501517 4.289207 3 366
5.22404 -9.5548811 4.1675282 3 367
5.2846379 -9.3582602 3.926734 3 368
5.3307672 -9.2081366 3.738565 3 369
5.4693113 -8.9803344 3.59217 3 370
5.5341273 -8.8007021 3.4005389 3 371
5.593647 -8.6087103 3.222822 3 372
5.7681151 -8.3324623 3.0955839 4 373
5.7949662 -8.1645794 2.9057442 4 374
5.7785669 -7.991643 2.700706 4 375
5.8733722 -7.8306022 2.420887 4 376
5.970356 -7.7059212 2.288923 4 377
5.9840398 -7.5186119 2.035207 4 378
5.9869242 -7.3957539 1.786409 4 379
6.0588498 -7.2749958 1.5116151 4 380
6.0727162 -7.111351 1.306056 4 381
6.167429 -6.953663 1.151758 4 382
6.1285601 -6.7159748 0.8824458 4 383
6.2037721 -6.55617 0.6675353 4 384
6.2708969 -6.3976312 0.4365573 3 385
6.351655 -6.2076192 0.2597575 3 386
6.3312378 -6.0549431 0.0118194 3 387
6.385418 -5.888525 -0.1523652 3 388
6.5060721 -5.6258221 -0.2960401 3 389
6.6116948 -5.4106059 -0.5005097 3 390
6.6423168 -5.1654701 -0.6572957 3 391
6.7348008 -5.0001512 -0.748816 3 392
6.882267 -4.7679749 -0.8938318 3 393
7.003973 -4.5393348 -1.017222 3 394
7.1238999 -4.2610889 -1.120406 3 395
7.229517 -4.018774 -1.1943671 3 396
7.278584 -3.7796381 -1.362988 4 397
7.397286 -3.608047 -1.536616 4 398
7.4539862 -3.3645761 -1.647961 4 399
7.5678048 -3.138027 -1.790812 4 400
7.6724482 -2.951488 -1.9872612 4 401
7.7233782 -2.716568 -2.176255 4 402
7.889945 -2.55035 -2.277791 4 403
7.9310288 -2.3078079 -2.4633031 4 404
8.0101509 -2.0531809 -2.641707 4 405
8.1048737 -1.871655 -2.732008 4 406
8.159853 -1.694019 -2.986599 4 407
8.2315388 -1.446648 -3.091053 4 408
8.352911 -1.27644 -3.3048649 3 409
8.4093742 -1.1295281 -3.4723761 3 410
8.5100479 -0.9355336 -3.663832 3 411
8.5902539 -0.649538 -3.8492342 3 412
8.6785603 -0.4631119 -4.0376129 3 413
8.7212162 -0.2838135 -4.1784692 3 414
8.7672959 -0.1089897 -4.3943429 3 415
8.83918 0.0630398 -4.5337172 3 416
8.906006 0.3411903 -4.7336111 3 417
9.0127182 0.4889832 -4.9437008 3 418
9.0903873 0.7608814 -5.0902472 3 419
9.115427 0.8754692 -5.2196469 3 420
9.2535973 1.077179 -5.4564371 4 421
9.282011 1.260002 -5.6552263 4 422
9.3562622 1.5060541 -5.8099351 4 423
9.5096836 1.70813 -5.9926062 4 424
9.5189629 1.89399 -6.206162 4 425
9.5711518 1.961647 -6.43256 4 426
9.5795574 2.191231 -6.658773 4 427
9.5835819 2.3712311 -6.8109751 4 428
9.6952706 2.483696 -7.1126418 4 429
9.7762242 2.6420269 -7.3006649 4 430
9.8133488 2.7177391 -7.5653329 4 431
9.8513794 2.807194 -7.792398 4 432
4.510233 -10.6486502 5.0667548 3 433
4.5323868 -10.46031 4.9110542 3 434
4.5940118 -10.3053103 4.7010021 3 435
4.723723 -10.0969105 4.4857922 3 436
4.8406892 -9.8567248 4.430284 3 437
4.891469 -9.6464052 4.365531 3 438
4.9775262 -9.4801417 4.2378802 3 439
5.0521188 -9.2867994 3.988412 3 440
5.1109171 -9.0720663 3.8015859 3 441
5.2217531 -8.8608618 3.664438 3 442
5.3529501 -8.6535197 3.4860471 3 443
5.496367 -8.4307919 3.342418 3 444
5.4671979 -8.2109509 3.1267829 4 445
5.5342641 -8.0267029 2.978986 4 446
5.6278649 -7.8451848 2.770814 4 447
5.6012182 -7.6694451 2.5446179 4 448
5.7029538 -7.508677 2.352926 4 449
5.6602731 -7.4183121 2.0860901 4 450
5.7926951 -7.2176781 1.846961 4 451
5.7887502 -7.1332588 1.594465 4 452
5.8754912 -6.9309732 1.377326 4 453
5.9281998 -6.7438889 1.160493 4 454
5.961287 -6.5645542 0.994474 4 455
5.9505978 -6.436306 0.7091517 4 456
6.0168982 -6.2228198 0.4715209 3 457
6.1638761 -6.0117722 0.3496947 3 458
6.1758242 -5.8904948 0.1151824 3 459
6.275156 -5.6660142 -0.0739789 3 460
6.3062081 -5.4798031 -0.2718072 3 461
6.3759918 -5.2930031 -0.4353528 3 462
6.4579282 -5.0266528 -0.5113721 3 463
6.5194268 -4.8346582 -0.6963105 3 464
6.6495519 -4.6167932 -0.8438954 3 465
6.7723809 -4.3586331 -0.9751192 3 466
6.85779 -4.15979 -1.11212 3 467
7.0039768 -3.9110662 -1.146592 3 468
7.1138649 -3.645638 -1.23983 4 469
7.1783719 -3.4401021 -1.4453531 4 470
7.3313851 -3.1647401 -1.500384 4 471
7.3350449 -3.0016191 -1.746779 4 472
7.441279 -2.7866781 -1.888775 4 473
7.5043822 -2.5724449 -2.0905731 4 474
7.5984459 -2.4002631 -2.2238391 4 475
7.7032929 -2.175812 -2.4092391 4 476
7.7985621 -1.942734 -2.522646 4 477
7.8046379 -1.715101 -2.7178521 4 478
7.9661742 -1.5403561 -2.9244202 4 479
8.035387 -1.301165 -3.075774 4 480
8.0657578 -1.125483 -3.3283999 3 481
8.1205158 -0.9853784 -3.498421 3 482
8.2634201 -0.7444477 -3.6522811 3 483
8.3296337 -0.583847 -3.913905 3 484
8.3935566 -0.4229546 -4.0584111 3 485
8.46311 -0.2477074 -4.2424488 3 486
8.5545731 0.0327454 -4.4048138 3 487
8.6267624 0.2515106 -4.5479188 3 488
8.720007 0.4166241 -4.713686 3 489
8.7310868 0.586359 -4.941195 3 490
8.793068 0.7965279 -5.1161451 3 491
8.9178048 1.046108 -5.2448578 3 492
8.966526 1.152596 -5.4378152 4 493
9.0604172 1.414631 -5.6149769 4 494
9.1526642 1.589689 -5.7968369 4 495
9.264307 1.874825 -5.9991102 4 496
9.2236729 1.946442 -6.1964922 4 497
9.2661648 2.0815849 -6.4633279 4 498
9.3461437 2.2383161 -6.5893779 4 499
9.3630333 2.4029429 -6.8816062 4 500
9.4750557 2.60289 -7.0908699 4 501
9.5632534 2.7700269 -7.3230991 4 502
9.5818997 2.894749 -7.5419159 4 503
9.5857296 2.9528872 -7.8002949 4 504
4.2266951 -10.4782896 5.129405 3 505
4.3190451 -10.3584099 4.944509 3 506
4.3810978 -10.14322 4.761035 3 507
4.430975 -9.9556476 4.5819912 3 508
4.5616608 -9.7732687 4.3853912 3 509
4.6832319 -9.5110846 4.3603659 3 510
4.7469559 -9.3002291 4.2838068 3 511
4.7666521 -9.1171141 4.054491 3 512
4.934792 -8.9406118 3.954845 3 513
5.085948 -8.6878977 3.7812321 3 514
5.1091452 -8.546834 3.5729001 3 515
5.1994119 -8.3382797 3.422885 3 516
5.2500649 -8.1013632 3.1940589 4 517
5.3242502 -7.920331 3.015317 4 518
5.3578839 -7.6437722 2.793001 4 519
5.3764181 -7.5215321 2.568424 4 520
5.4328981 -7.339325 2.3830471 4 521
5.4859638 -7.2392159 2.145668 4 522
5.5450812 -7.1146579 1.890546 4 523
5.5986562 -6.9489398 1.669572 4 524
5.6456671 -6.790802 1.4395731 4 525
5.6818762 -6.6210752 1.235197 4 526
5.725945 -6.3708382 1.0731651 4 527
5.7688852 -6.2250118 0.8118224 4 528
5.8399892 -6.0986671 0.5337596 3 529
5.9007212 -5.891472 0.3993831 3 530
5.9866762 -5.6889992 0.2141566 3 531
6.0534329 -5.502419 0.0469031 3 532
6.0935669 -5.3164058 -0.1342816 3 533
6.148953 -5.1454392 -0.3250947 3 534
6.242085 -4.9556408 -0.4643502 3 535
6.3263331 -4.6981888 -0.6217809 3 536
6.4719591 -4.4532781 -0.741673 3 537
6.5416131 -4.2394409 -0.8724942 3 538
6.632145 -4.0551448 -1.108145 3 539
6.7714939 -3.7227149 -1.105904 3 540
6.8635068 -3.5284691 -1.153134 4 541
6.959448 -3.285337 -1.325015 4 542
7.0627751 -3.0840449 -1.5661381 4 543
7.1143522 -2.8337569 -1.647551 4 544
7.2063952 -2.638454 -1.857687 4 545
7.3278222 -2.45734 -2.0041411 4 546
7.3729019 -2.2092719 -2.1795199 4 547
7.4538708 -2.0451829 -2.3421221 4 548
7.5170059 -1.822138 -2.528395 4 549
7.5485201 -1.616892 -2.7299521 4 550
7.6742921 -1.433197 -2.910656 4 551
7.7348409 -1.200184 -3.0541539 4 552
7.7968722 -1.003904 -3.3261111 3 553
7.926548 -0.8724556 -3.495081 3 554
8.0140686 -0.6881008 -3.657023 3 555
8.0480804 -0.4954815 -3.865269 3 556
8.1315003 -0.330307 -4.0818071 3 557
8.228468 -0.0905895 -4.2002049 3 558
8.233942 0.1446915 -4.3459039 3 559
8.3438625 0.2807922 -4.5940609 3 560
8.4470196 0.4983368 -4.7370272 3 561
8.5291252 0.7507133 -4.9278188 3 562
8.5547943 0.9417076 -4.9891482 3 563
8.572115 1.069191 -5.2477708 3 564
8.6978684 1.2875021 -5.461802 4 565
8.8262768 1.528973 -5.5630479 4 566
8.8707886 1.732914 -5.719769 4 567
8.923235 1.851561 -6.0278101 4 568
8.9692688 1.967693 -6.263216 4 569
9.0491695 2.1634409 -6.4603982 4 570
9.1151848 2.3551481 -6.686626 4 571
9.1456471 2.539402 -6.887959 4 572
9.2022381 2.7373619 -7.1128311 4 573
9.260809 2.849726 -7.2764678 4 574
9.3145046 3.0267749 -7.537941 4 575
9.3682652 3.0843051 -7.7663551 4 576
3.958016 -10.3853397 5.1152949 3 577
4.1365991 -10.19032 5.1034241 3 578
4.2165718 -9.9736834 4.850627 3 579
4.2551179 -9.8123217 4.6972208 3 580
4.2704148 -9.6270285 4.5646029 3 581
4.4197831 -9.4037142 4.357595 3 582
4.5291829 -9.2195368 4.3254981 3 583
4.626914 -8.9695712 4.1898699 3 584
4.6879468 -8.7705488 3.989852 3 585
4.874917 -8.5600424 3.8124581 3 586
4.852139 -8.3661223 3.6366589 3 587
4.9668298 -8.1364956 3.4472101 3 588
5.057498 -7.951552 3.2417081 4 589
5.0583501 -7.7852979 3.0637009 4 590
5.1148191 -7.59411 2.862033 4 591
5.141284 -7.3769798 2.6564081 4 592
5.1932449 -7.2092819 2.413513 4 593
5.2519541 -7.1296539 2.179153 4 594
5.2586899 -6.9995352 1.94573 4 595
5.3701711 -6.7535672 1.792127 4 596
5.419766 -6.61729 1.537553 4 597
5.4834032 -6.412642 1.348499 4 598
5.5495949 -6.2381969 1.151361 4 599
5.5691152 -6.0390449 0.9450126 4 600
5.6412802 -5.943686 0.6523395 3 601
5.648737 -5.7370401 0.4397502 3 602
5.755837 -5.5754133 0.3104377 3 603
5.7896729 -5.368362 0.1404529 3 604
5.8378358 -5.2044392 -0.0609136 3 605
6.0141149 -4.9716822 -0.1958146 3 606
6.0028629 -4.7711411 -0.4374185 3 607
6.1204948 -4.574039 -0.6095624 3 608
6.1238828 -4.3268871 -0.7391686 3 609
6.2635331 -4.111074 -0.9107004 3 610
6.4280672 -3.87328 -0.9863038 3 611
6.5020151 -3.634825 -1.039874 3 612
6.6591568 -3.4079821 -1.235508 4 613
6.7230039 -3.1878469 -1.331999 4 614
6.7995672 -2.94516 -1.487069 4 615
6.8408928 -2.7608719 -1.7390731 4 616
6.9463048 -2.536922 -1.88247 4 617
7.0183969 -2.311142 -2.0247121 4 618
7.1367841 -2.0989859 -2.088454 4 619
7.1950798 -1.921658 -2.3481259 4 620
7.2983289 -1.705841 -2.515471 4 621
7.311018 -1.5209481 -2.654393 4 622
7.4660149 -1.278387 -2.844986 4 623
7.4958811 -1.13699 -3.028986 4 624
7.5737162 -0.9220352 -3.2315431 3 625
7.600462 -0.7757626 -3.4694221 3 626
7.6934419 -0.5763397 -3.7125001 3 627
7.8054738 -0.410099 -3.8999792 3 628
7.9027982 -0.1728287 -4.0309548 3 629
7.995009 0.0800858 -4.1152649 3 630
8.0567379 0.2089081 -4.3495531 3 631
8.0959568 0.4018517 -4.573494 3 632
8.1966343 0.5830307 -4.7162328 3 633
8.2842178 0.8286209 -4.8183918 3 634
8.3301106 1.05941 -5.0546861 3 635
8.4052067 1.173618 -5.2445569 3 636
8.426342 1.3741651 -5.4708772 4 637
8.5724678 1.6101951 -5.6117521 4 638
8.6604061 1.831478 -5.6868768 4 639
8.687378 1.979664 -5.958222 4 640
8.7069912 2.113369 -6.1998749 4 641
8.7253628 2.240891 -6.4365888 4 642
8.8418484 2.457882 -6.6167021 4 643
8.8537064 2.6162701 -6.8321748 4 644
8.9993764 2.8681432 -6.974411 4 645
8.9511758 3.0034289 -7.2064591 4 646
9.0581932 3.0918691 -7.46976 4 647
9.0844545 3.2386739 -7.6873689 4 648
3.836771 -10.1875401 5.3475199 3 649
3.9355992 -10.0659103 5.1657772 3 650
3.952704 -9.8541594 4.964532 3 651
4.0144701 -9.672719 4.7982331 3 652
4.0897341 -9.5094347 4.6208892 3 653
4.1557579 -9.2427263 4.443943 3 654
4.2966809 -9.0328035 4.3701429 3 655
4.3588171 -8.8500814 4.225471 3 656
4.4805551 -8.6521425 4.0700302 3 657
4.5475788 -8.4167624 3.893941 3 658
4.611392 -8.2139988 3.692749 3 659
4.672328 -8.0413227 3.49468 3 660
4.7780752 -7.8456368 3.3560231 4 661
4.7986989 -7.6981931 3.0835011 4 662
4.8689452 -7.4905401 2.9033712 4 663
4.888957 -7.2985268 2.728652 4 664
4.979208 -7.1523652 2.489841 4 665
5.0267091 -6.9571252 2.2053981 4 666
5.0679822 -6.8068218 2.000185 4 667
5.119277 -6.6181622 1.844503 4 668
5.1378789 -6.4625988 1.561389 4 669
5.2327809 -6.2977219 1.382738 4 670
5.3194952 -6.1028562 1.190109 4 671
5.3239331 -5.915939 0.9732014 4 672
5.4241109 -5.7429071 0.7756953 3 673
5.450028 -5.5883899 0.5435176 3 674
5.478179 -5.4024301 0.3593574 3 675
5.6214071 -5.17767 0.2129378 3 676
5.693635 -4.996666 -0.0267472 3 677
5.7642541 -4.8261638 -0.138783 3 678
5.8142019 -4.6142121 -0.289021 3 679
5.8548722 -4.4072528 -0.4489179 3 680
5.994977 -4.1973882 -0.6838136 3 681
6.0547361 -4.0073552 -0.8733374 3 682
6.130888 -3.763439 -0.9426962 3 683
6.299696 -3.468235 -1.059132 3 684
6.403204 -3.297636 -1.169577 4 685
6.4424672 -3.089493 -1.3190351 4 686
6.5574351 -2.868979 -1.414961 4 687
6.6032572 -2.6899381 -1.703547 4 688
6.656189 -2.441036 -1.791359 4 689
6.7488752 -2.19907 -1.984152 4 690
6.8269301 -2.0461199 -2.122128 4 691
6.9533658 -1.8150621 -2.333313 4 692
7.0587258 -1.6358071 -2.491133 4 693
7.1352601 -1.387568 -2.6000371 4 694
7.1362271 -1.212358 -2.845166 4 695
7.293953 -1.052044 -3.0164061 4 696
7.3331528 -0.7784939 -3.203835 3 697
7.4211998 -0.5813713 -3.449049 3 698
7.4911919 -0.3682213 -3.6296871 3 699
7.591847 -0.1879692 -3.785029 3 700
7.634552 -0.020031 -3.9494182 3 701
7.718432 0.1836166 -4.0873442 3 702
7.775712 0.3351402 -4.3578129 3 703
7.871699 0.5387459 -4.5359311 3 704
7.9525462 0.6951942 -4.7282973 3 705
8.0527306 0.936184 -4.808909 3 706
8.0324268 1.119514 -5.027009 3 707
8.1399498 1.299694 -5.2448182 3 708
8.230217 1.5331841 -5.393404 4 709
8.2761078 1.7449041 -5.5823622 4 710
8.3896313 1.877426 -5.8080392 4 711
8.4394017 2.109587 -5.9296188 4 712
8.4798489 2.2623439 -6.1522889 4 713
8.5286846 2.3730199 -6.4465871 4 714
8.5824013 2.5160201 -6.631608 4 715
8.6461125 2.7542861 -6.7430549 4 716
8.7103606 2.95137 -7.0054998 4 717
8.7980328 3.155838 -7.1657701 4 718
8.7924233 3.2284391 -7.4392672 4 719
8.7911644 3.3374021 -7.6605611 4 720
3.687973 -10.0226402 5.5272751 3 721
3.68011 -9.8380976 5.30863 3 722
3.752743 -9.7018328 5.1207771 3 723
3.8116119 -9.510108 4.914424 3 724
3.9043602 -9.2851172 4.7789302 3 725
4.0093122 -9.1027002 4.6152849 3 726
4.111928 -8.8696986 4.5020333 3 727
4.1904721 -8.6691408 4.2733112 3 728
4.2726522 -8.4624691 4.0876732 3 729
4.3421769 -8.278388 3.93711 3 730
4.3845811 -8.1230307 3.737545 3 731
4.4309182 -7.897521 3.583534 3 732
4.4696679 -7.7153721 3.333477 4 733
4.5015569 -7.5687142 3.0645039 4 734
4.5575848 -7.4088779 2.865289 4 735
4.6525941 -7.200191 2.668802 4 736
4.6633358 -7.012291 2.5291419 4 737
4.7941098 -6.8306332 2.335824 4 738
4.874897 -6.6742401 2.0723569 4 739
4.892827 -6.4760442 1.910512 4 740
4.9608312 -6.2647901 1.686414 4 741
4.998097 -6.139782 1.418006 4 742
5.0697808 -5.938305 1.244623 4 743
5.1680231 -5.7211719 1.053319 4 744
5.203743 -5.582201 0.8192554 3 745
5.2301178 -5.429966 0.6734786 3 746
5.29461 -5.2391191 0.4757876 3 747
5.3649392 -5.0723038 0.3195796 3 748
5.4897309 -4.887005 0.0465922 3 749
5.5649553 -4.6513901 -0.105618 3 750
5.5974932 -4.4466338 -0.2020383 3 751
5.699894 -4.2196369 -0.3480134 3 752
5.7543659 -4.065279 -0.6121984 3 753
5.855134 -3.8227539 -0.7475686 3 754
5.9460912 -3.5955241 -0.8881364 3 755
6.0369039 -3.4163091 -1.048403 3 756
6.114562 -3.1422651 -1.17907 4 757
6.1981359 -2.9308742 -1.316227 4 758
6.2684941 -2.7537079 -1.4823101 4 759
6.3796811 -2.5458911 -1.580819 4 760
6.4978571 -2.3131051 -1.764521 4 761
6.5852552 -2.015137 -1.879426 4 762
6.629292 -1.888947 -2.097229 4 763
6.6953702 -1.658674 -2.249655 4 764
6.7503152 -1.5123481 -2.4751151 4 765
6.8245259 -1.311012 -2.6873169 4 766
6.9062372 -1.131317 -2.8211351 4 767
7.084549 -0.899456 -2.957409 4 768
7.1417599 -0.6671791 -3.1970911 3 769
7.154181 -0.466156 -3.2964749 3 770
7.2623658 -0.224659 -3.5470681 3 771
7.3306089 -0.092823 -3.7115159 3 772
7.397995 0.1011848 -3.8747662 3 773
7.4610348 0.266716 -4.1623011 3 774
7.4875322 0.4413395 -4.2838788 3 775
7.5958143 0.6260414 -4.5514279 3 776
7.6718178 0.8568878 -4.6344228 3 777
7.7684241 1.060928 -4.883337 3 778
7.8347969 1.2377401 -5.0063119 3 779
7.856289 1.487715 -5.1932111 3 780
7.9792892 1.668373 -5.310441 4 781
8.0470905 1.906574 -5.469122 4 782
8.099741 2.005657 -5.7106271 4 783
8.2016754 2.2335639 -5.8972478 4 784
8.2197495 2.3004301 -6.1098008 4 785
8.2793579 2.5026701 -6.4227782 4 786
8.2756062 2.64426 -6.5709911 4 787
8.3681297 2.887646 -6.7287221 4 788
8.4489403 3.0736201 -6.997162 4 789
8.5345841 3.23402 -7.1719852 4 790
8.5394802 3.37112 -7.4075909 4 791
8.5565758 3.459888 -7.6233859 4 792
3.4558239 -9.918355 5.616745 3 793
3.5129969 -9.7040072 5.4632831 3 794
3.5336941 -9.5924006 5.2058439 3 795
3.619488 -9.3670759 5.0223312 3 796
3.747309 -9.1418543 4.869894 3 797
3.841467 -8.8937864 4.765235 3 798
3.9132432 -8.6971541 4.6181369 3 799
3.999814 -8.5016966 4.4129181 3 800
4.0270748 -8.3277922 4.2514429 3 801
4.0555959 -8.1710453 3.995965 3 802
4.1702428 -7.9451618 3.8208711 3 803
4.2003141 -7.761118 3.567375 3 804
4.2847729 -7.5661431 3.343889 4 805
4.3986378 -7.388165 3.1778481 4 806
4.3638291 -7.2542191 2.94868 4 807
4.3798742 -7.065289 2.768137 4 808
4.465447 -6.9307518 2.524139 4 809
4.550087 -6.7460399 2.3574629 4 810
4.6755052 -6.5735069 2.138731 4 811
4.6692338 -6.3298988 1.926879 4 812
4.7661481 -6.133234 1.772031 4 813
4.8377419 -5.9670448 1.556077 4 814
4.85501 -5.773964 1.357301 4 815
4.952599 -5.58812 1.163372 4 816
5.0186682 -5.4320851 0.9544196 3 817
4.959054 -5.298676 0.6988788 3 818
5.059351 -5.0605621 0.4945064 3 819
5.1998639 -4.9018288 0.3267417 3 820
5.2308889 -4.7065811 0.1724238 3 821
5.285759 -4.5125351 0.0414767 3 822