ITEM: TIMESTEP
21
ITEM: NUMBER OF ATOMS
85964
ITEM: BOX BOUNDS pp pp pp
-15.085 15.085
-15.085 15.085
-15.085 15.085
ITEM: ATOMS x y z type id
-2.4272061 -11.8561698 -6.1761522 3 1
-2.440691 -11.8122502 -5.9008698 3 2
-2.361702 -11.7321797 -5.63763 3 3
-2.216306 -11.5779801 -5.4620219 3 4
-2.0826831 -11.5123902 -5.2070112 3 5
-1.985185 -11.32582 -5.0833502 3 6
-2.0813439 -11.3253899 -4.7342038 3 7
-2.0041821 -11.2744703 -4.5403342 3 8
-2.0147369 -11.2101803 -4.2341619 3 9
-2.0161741 -11.0691795 -3.981488 3 10
-1.975576 -11.0206003 -3.6716221 3 11
-1.8241511 -10.8974 -3.403712 3 12
-1.7175501 -10.9341402 -3.195817 4 13
-1.589029 -10.8363199 -2.9419242 4 14
-1.477952 -10.7673903 -2.7290721 4 15
-1.336686 -10.7199097 -2.48136 4 16
-1.418035 -10.6093197 -2.220546 4 17
-1.498801 -10.5629196 -1.949485 4 18
-1.423558 -10.4808798 -1.695346 4 19
-1.3647471 -10.3848 -1.45678 4 20
-1.274612 -10.3185701 -1.170201 4 21
-1.1974 -10.2223301 -0.9632512 4 22
-1.20876 -10.1593304 -0.6776266 4 23
-1.157714 -10.0183697 -0.3455276 4 24
-1.1483589 -10.0328598 -0.056387 3 25
-1.355304 -9.9538584 0.1629066 3 26
-1.354169 -9.9016 0.4457703 3 27
-1.422441 -9.7913752 0.718708 3 28
-1.5135221 -9.7335234 1.023922 3 29
-1.5638731 -9.6463938 1.263655 3 30
-1.5019521 -9.5709381 1.559673 3 31
-1.4782781 -9.4904776 1.7643811 3 32
-1.371921 -9.4197426 2.068455 3 33
-1.3206281 -9.3194828 2.2773631 3 34
-1.241933 -9.3172856 2.52717 3 35
-1.214273 -9.2501583 2.820122 3 36
-1.339729 -9.1835079 3.0959489 4 37
-1.166261 -9.0736599 3.3038521 4 38
-1.179643 -8.9807502 3.6396711 4 39
-1.213933 -8.8144207 3.880039 4 40
-1.118133 -8.8064499 4.1553989 4 41
-1.051906 -8.6624985 4.4754639 4 42
-0.980325 -8.5652466 4.6656609 4 43
-0.9894842 -8.4849339 4.9937968 4 44
-0.9982102 -8.3865204 5.2087479 4 45
-1.0221699 -8.2674408 5.488811 4 46
-0.9956734 -8.1418409 5.7501159 4 47
-0.9512056 -8.0932331 6.0310631 4 48
-0.8741944 -7.9259138 6.3190212 3 49
-1.009658 -7.79208 6.5302372 3 50
-1.066753 -7.694901 6.751257 3 51
-0.9886716 -7.6187959 7.037899 3 52
-0.927356 -7.5408721 7.3129249 3 53
-0.8828996 -7.407887 7.592813 3 54
-0.7158577 -7.4576578 7.8299408 3 55
-0.5758126 -7.3764362 8.065567 3 56
-0.4899685 -7.3483119 8.3770523 3 57
-0.3372662 -7.2681012 8.6163826 3 58
-0.1239274 -7.269372 8.8190174 3 59
-0.0605557 -7.1518679 9.1230011 3 60
0.0081165 -7.1544719 9.3679867 4 61
0.1666439 -7.118711 9.5802078 4 62
0.4413059 -7.0839129 9.7832737 4 63
0.5571164 -7.0299048 10.0450602 4 64
0.5616691 -6.9022742 10.3010197 4 65
0.548436 -6.738545 10.5437804 4 66
0.6141365 -6.6287031 10.82199 4 67
0.717984 -6.5630889 11.0574398 4 68
0.829087 -6.5438471 11.3277502 4 69
0.8996112 -6.4210162 11.5455799 4 70
1.109605 -6.3607259 11.80583 4 71
1.205363 -6.2917848 11.9990798 4 72
-2.6475661 -11.6668597 -6.1940179 3 73
-2.580658 -11.6208096 -5.9845648 3 74
-2.4728601 -11.5267096 -5.739018 3 75
-2.2675951 -11.3997698 -5.5314908 3 76
-2.1452689 -11.2744999 -5.278676 3 77
-2.110879 -11.1788797 -5.0619669 3 78
-2.050035 -11.0862999 -4.822577 3 79
-2.028255 -11.0216799 -4.5857001 3 80
-1.94507 -10.9640398 -4.3297429 3 81
-1.914983 -10.8905498 -4.0164919 3 82
-1.8334 -10.8381596 -3.736506 3 83
-1.837606 -10.7008801 -3.5253191 3 84
-1.7280571 -10.67165 -3.2673409 4 85
-1.5981341 -10.5884896 -3.0458519 4 86
-1.4332941 -10.5055399 -2.7664461 4 87
-1.36464 -10.4039498 -2.537612 4 88
-1.478513 -10.4101 -2.298312 4 89
-1.4004281 -10.30161 -2.0200801 4 90
-1.460616 -10.2735205 -1.725139 4 91
-1.404298 -10.1894999 -1.500189 4 92
-1.344596 -10.11691 -1.2309001 4 93
-1.34716 -10.0788097 -0.9785852 4 94
-1.176955 -9.9288608 -0.7480088 4 95
-1.230762 -9.912592 -0.4486408 4 96
-1.194431 -9.8328362 -0.1522751 3 97
-1.286336 -9.738514 0.1718864 3 98
-1.304704 -9.7081404 0.4011135 3 99
-1.3430801 -9.6210251 0.665453 3 100
-1.467757 -9.5400105 0.96171 3 101
-1.445894 -9.4413662 1.222656 3 102
-1.421489 -9.3338661 1.464062 3 103
-1.344793 -9.279048 1.701649 3 104
-1.347043 -9.1998863 1.954014 3 105
-1.317533 -9.1162882 2.206667 3 106
-1.220699 -9.0239582 2.5198121 3 107
-1.153039 -8.9907514 2.778564 3 108
-1.131828 -8.9178372 2.994385 4 109
-1.1673271 -8.8515712 3.2911589 4 110
-1.086807 -8.7358494 3.522604 4 111
-1.072269 -8.6979323 3.865768 4 112
-1.114291 -8.561163 4.0845242 4 113
-1.042186 -8.4649802 4.4026599 4 114
-0.9555124 -8.3909187 4.6461849 4 115
-0.8924154 -8.3377838 4.876822 4 116
-0.8953908 -8.1641874 5.1023011 4 117
-0.9021734 -8.088192 5.3983841 4 118
-0.7908356 -8.0239115 5.6844139 4 119
-0.841552 -7.924863 5.9475098 4 120
-0.7863953 -7.7816339 6.1971378 3 121
-0.7688744 -7.6291209 6.4541631 3 122
-0.8680776 -7.5071559 6.6967321 3 123
-0.840341 -7.3892799 6.9416008 3 124
-0.7704117 -7.347343 7.244946 3 125
-0.7001946 -7.2417779 7.5259481 3 126
-0.5782959 -7.2018161 7.7557259 3 127
-0.4873555 -7.209764 8.0474625 3 128
-0.3233044 -7.2071228 8.2496872 3 129
-0.2735531 -7.0711889 8.4939156 3 130
-0.1259167 -7.0165081 8.7670269 3 131
0.0285842 -7.0563598 8.9876596 3 132
0.1195953 -6.9471598 9.2808228 4 133
0.2934673 -6.8962188 9.4627533 4 134
0.4407794 -6.853271 9.7190399 4 135
0.5076416 -6.7781811 9.94549 4 136
0.5579689 -6.7021408 10.1988096 4 137
0.6742752 -6.57018 10.4854203 4 138
0.7057254 -6.4336152 10.7273302 4 139
0.8092335 -6.3809061 10.95605 4 140
0.9159726 -6.3519621 11.2090197 4 141
1.1334521 -6.303648 11.4237299 4 142
1.200946 -6.2063918 11.6646204 4 143
1.3182041 -6.1941171 11.8827802 4 144
-2.704263 -11.3761397 -6.2463312 3 145
-2.643281 -11.3563099 -6.0349259 3 146
-2.539551 -11.2660999 -5.8507452 3 147
-2.367909 -11.1519003 -5.5847788 3 148
-2.224402 -11.0342999 -5.419364 3 149
-2.1999841 -10.9470702 -5.1114321 3 150
-2.0439689 -10.8318701 -4.9213228 3 151
-1.99833 -10.7544899 -4.6172652 3 152
-2.0848 -10.7093601 -4.3903322 3 153
-1.976466 -10.6391001 -4.0898409 3 154
-1.871066 -10.5293198 -3.8346851 3 155
-1.777772 -10.4881802 -3.602468 3 156
-1.68386 -10.4155197 -3.359849 4 157
-1.691823 -10.3319903 -3.0826221 4 158
-1.557737 -10.2540798 -2.84949 4 159
-1.5373451 -10.2287302 -2.6043601 4 160
-1.5284701 -10.1062098 -2.32706 4 161
-1.471362 -10.0282002 -2.095185 4 162
-1.557393 -10.0160999 -1.79572 4 163
-1.508704 -9.9283934 -1.550727 4 164
-1.4502501 -9.8115254 -1.301857 4 165
-1.331722 -9.7961712 -1.02903 4 166
-1.371974 -9.7043123 -0.7706852 4 167
-1.314895 -9.6332827 -0.4724998 4 168
-1.1913641 -9.5763026 -0.2387371 3 169
-1.275251 -9.4960385 0.0234089 3 170
-1.288074 -9.4220457 0.2922935 3 171
-1.322501 -9.3505488 0.5923996 3 172
-1.375343 -9.2876778 0.8348198 3 173
-1.3385921 -9.202713 1.1246409 3 174
-1.313655 -9.1081457 1.4042 3 175
-1.305543 -8.998623 1.6006431 3 176
-1.287017 -8.9527808 1.891438 3 177
-1.2731871 -8.8837062 2.1167769 3 178
-1.141025 -8.8411274 2.4485441 3 179
-1.181894 -8.7076044 2.7146931 3 180
-1.145211 -8.6648522 2.976233 4 181
-1.1324019 -8.5799141 3.245718 4 182
-1.070832 -8.4959202 3.4924071 4 183
-0.9486116 -8.4147072 3.7306631 4 184
-0.913213 -8.3460093 4.0154881 4 185
-0.9736054 -8.2037611 4.2635288 4 186
-0.917457 -8.14991 4.518867 4 187
-0.873731 -8.0353508 4.7609139 4 188
-0.8672974 -7.951468 5.0726261 4 189
-0.7662061 -7.8409462 5.312706 4 190
-0.7352707 -7.7413512 5.5982342 4 191
-0.771209 -7.682415 5.8177948 4 192
-0.8093941 -7.5113068 6.0795059 3 193
-0.7755196 -7.4057431 6.3494468 3 194
-0.7901528 -7.2985039 6.5513821 3 195
-0.7228062 -7.1957922 6.860487 3 196
-0.6685059 -7.121594 7.1106448 3 197
-0.5557663 -7.046793 7.3927612 3 198
-0.4679558 -6.9950052 7.6286321 3 199
-0.2971528 -6.9830098 7.900311 3 200
-0.1960137 -6.9259 8.1541634 3 201
-0.1340516 -6.858563 8.3640041 3 202
0.0133464 -6.8143969 8.6320191 3 203
0.1549633 -6.793592 8.8013172 3 204
0.2437732 -6.7116399 9.1091061 4 205
0.4691284 -6.7386899 9.358635 4 206
0.4673927 -6.6326928 9.6121407 4 207
0.5486839 -6.5274959 9.8792954 4 208
0.6576545 -6.4395142 10.1013298 4 209
0.8295867 -6.4199748 10.3371201 4 210
0.8604038 -6.2829661 10.5950499 4 211
0.989991 -6.234685 10.8235903 4 212
1.033866 -6.1058698 11.0779696 4 213
1.175683 -6.0933151 11.2752705 4 214
1.370518 -6.0852332 11.5222502 4 215
1.46441 -5.991673 11.6959 4 216
-2.85934 -11.1855097 -6.3439531 3 217
-2.710757 -11.0705204 -6.1163778 3 218
-2.6074751 -10.97256 -5.9150128 3 219
-2.3946891 -10.81707 -5.7237058 3 220
-2.311353 -10.8173905 -5.4619508 3 221
-2.2653561 -10.67237 -5.2178202 3 222
-2.1679151 -10.5732203 -4.9720068 3 223
-2.1165171 -10.5051403 -4.6898852 3 224
-2.0881071 -10.4483099 -4.4037008 3 225
-1.905158 -10.3554402 -4.1803331 3 226
-1.853841 -10.2620497 -3.981202 3 227
-1.782876 -10.1906204 -3.703816 3 228
-1.713271 -10.1336098 -3.4563461 4 229
-1.641008 -10.0522299 -3.1726501 4 230
-1.612567 -10.0063896 -2.899142 4 231
-1.619346 -9.882699 -2.6711569 4 232
-1.592214 -9.7805014 -2.4125381 4 233
-1.555473 -9.7646065 -2.1242149 4 234
-1.524295 -9.6703682 -1.88647 4 235
-1.5491461 -9.6752005 -1.632556 4 236
-1.451463 -9.607297 -1.3674491 4 237
-1.4521001 -9.4827519 -1.076643 4 238
-1.370191 -9.4439221 -0.7832966 4 239
-1.364867 -9.3736563 -0.595829 4 240
-1.257892 -9.291378 -0.3032455 3 241
-1.277097 -9.2387848 -0.046627 3 242
-1.301242 -9.1918688 0.2349358 3 243
-1.291131 -9.1176462 0.4874554 3 244
-1.320022 -9.0404387 0.8097839 3 245
-1.270545 -8.9419976 1.0546 3 246
-1.266174 -8.8138409 1.276283 3 247
-1.212602 -8.744256 1.5172941 3 248
-1.23249 -8.6895476 1.803093 3 249
-1.217901 -8.5734473 2.0659771 3 250
-1.175567 -8.5478726 2.372782 3 251
-1.1125081 -8.4452057 2.624924 3 252
-1.059409 -8.3950071 2.910774 4 253
-1.114768 -8.3137789 3.1409681 4 254
-1.07612 -8.2302599 3.43187 4 255
-0.9141552 -8.1625052 3.648499 4 256
-0.9010232 -8.0603838 3.916813 4 257
-0.8113434 -8.0317764 4.1977692 4 258
-0.7839653 -7.8632932 4.4693299 4 259
-0.8670342 -7.7771492 4.6774249 4 260
-0.7988617 -7.6833129 4.9670472 4 261
-0.6323674 -7.587236 5.2445202 4 262
-0.6970361 -7.4677248 5.4732862 4 263
-0.7019227 -7.4333978 5.7680588 4 264
-0.6919186 -7.2913818 5.9475818 3 265
-0.7009156 -7.1885629 6.2112351 3 266
-0.6028531 -7.09376 6.4531288 3 267
-0.5519192 -6.988935 6.7597051 3 268
-0.5176327 -6.909957 7.0410118 3 269
-0.4069245 -6.8443232 7.246367 3 270
-0.306495 -6.8000641 7.5619431 3 271
-0.1962636 -6.7815953 7.7428861 3 272
-0.0809529 -6.6732378 7.9990978 3 273
0.0510757 -6.6627651 8.2213783 3 274
0.1348979 -6.6733928 8.4806977 3 275
0.277602 -6.5377641 8.7571965 3 276
0.3749168 -6.489676 9.0110359 4 277
0.4609497 -6.4748411 9.2838993 4 278
0.5780647 -6.3361678 9.508215 4 279
0.6688774 -6.2501111 9.7497559 4 280
0.78143 -6.167531 9.9783936 4 281
0.9198292 -6.171855 10.2079001 4 282
1.020425 -6.1117201 10.4077301 4 283
1.130654 -6.061172 10.6784296 4 284
1.244687 -5.920353 10.93919 4 285
1.385344 -5.880517 11.1475802 4 286
1.540774 -5.8970842 11.4200297 4 287
1.5841151 -5.732955 11.5945397 4 288
-2.8868772 -10.8819904 -6.401711 3 289
-2.7767229 -10.8395004 -6.218791 3 290
-2.617575 -10.7486897 -5.9722152 3 291
-2.526613 -10.6319504 -5.7268229 3 292
-2.3897469 -10.5515099 -5.4899359 3 293
-2.3147121 -10.4541197 -5.2459192 3 294
-2.2010961 -10.2997198 -5.0266919 3 295
-2.170589 -10.2501497 -4.776599 3 296
-2.1042471 -10.1698904 -4.5151491 3 297
-1.960277 -10.09758 -4.272769 3 298
-1.8372261 -10.0156498 -4.0489359 3 299
-1.835719 -9.925645 -3.787585 3 300
-1.743556 -9.8350592 -3.517766 4 301
-1.683259 -9.7810745 -3.25562 4 302
-1.725559 -9.7173224 -2.975699 4 303
-1.6397341 -9.6612416 -2.7093439 4 304
-1.6424361 -9.5589352 -2.4762509 4 305
-1.5984221 -9.4864187 -2.2196911 4 306
-1.573068 -9.460762 -1.913566 4 307
-1.554204 -9.4169579 -1.665061 4 308
-1.516948 -9.3448935 -1.38491 4 309
-1.47491 -9.2332029 -1.1575151 4 310
-1.412305 -9.1889763 -0.8960304 4 311
-1.331767 -9.1213894 -0.6183853 4 312
-1.22945 -9.0438538 -0.3725834 3 313
-1.270656 -8.9480706 -0.1200428 3 314
-1.254005 -8.9066496 0.1885757 3 315
-1.377433 -8.8262043 0.4382248 3 316
-1.276471 -8.7431612 0.6708184 3 317
-1.314819 -8.6440487 0.9484216 3 318
-1.237334 -8.5244437 1.21102 3 319
-1.159591 -8.5178452 1.47477 3 320
-1.203693 -8.4487591 1.7340551 3 321
-1.1583591 -8.3942557 2.0272901 3 322
-1.057332 -8.2658405 2.283247 3 323
-1.058597 -8.1826325 2.5329781 3 324
-1.130111 -8.1192741 2.8350141 4 325
-1.000648 -8.0841866 3.097528 4 326
-1.001294 -7.9859328 3.3426509 4 327
-0.9358456 -7.8836852 3.5776811 4 328
-0.7934029 -7.8318448 3.841995 4 329
-0.7666352 -7.755332 4.088428 4 330
-0.8030312 -7.5775938 4.328156 4 331
-0.7316773 -7.549798 4.6044731 4 332
-0.7012093 -7.4505902 4.89739 4 333
-0.6765397 -7.3354931 5.1687131 4 334
-0.570554 -7.2332721 5.389864 4 335
-0.6044114 -7.1612458 5.6761632 4 336
-0.6511261 -7.0313482 5.8537288 3 337
-0.5114796 -6.9569898 6.1396451 3 338
-0.4484818 -6.900826 6.37882 3 339
-0.410434 -6.82656 6.63448 3 340
-0.3334038 -6.6933332 6.873116 3 341
-0.2113431 -6.681459 7.1482639 3 342
-0.1510613 -6.5767179 7.4143791 3 343
-0.0729821 -6.5619159 7.632782 3 344
0.0358703 -6.497428 7.8990522 3 345
0.1895797 -6.4030562 8.1569691 3 346
0.2599037 -6.3565998 8.3490563 3 347
0.3819416 -6.302444 8.6690655 3 348
0.5712059 -6.3151479 8.8674374 4 349
0.60834 -6.2390781 9.133297 4 350
0.6044586 -6.0673451 9.4028816 4 351
0.7562244 -6.0075641 9.6272373 4 352
0.946923 -5.9745122 9.8353653 4 353
1.025519 -5.903236 10.0621004 4 354
1.1807491 -5.8437692 10.2905998 4 355
1.3210991 -5.879469 10.5438996 4 356
1.4530701 -5.810864 10.8018799 4 357
1.5779181 -5.722085 11.0339699 4 358
1.607159 -5.5702572 11.30128 4 359
1.757443 -5.6322198 11.4676104 4 360
-3.0435791 -10.6681996 -6.4645262 3 361
-2.894258 -10.5674296 -6.225636 3 362
-2.763922 -10.4550896 -6.038415 3 363
-2.6723011 -10.3492403 -5.8126688 3 364
-2.5129221 -10.3007498 -5.6088929 3 365
-2.4463539 -10.2003298 -5.3114181 3 366
-2.2961929 -10.1012297 -5.088479 3 367
-2.165319 -10.0195198 -4.859891 3 368
-2.1560831 -9.9368896 -4.5347009 3 369
-1.952567 -9.8534098 -4.3979249 3 370
-1.916793 -9.6969376 -4.1398358 3 371
-1.909566 -9.6884957 -3.88392 3 372
-1.872726 -9.636426 -3.5636971 4 373
-1.840324 -9.56989 -3.307061 4 374
-1.7837041 -9.5025959 -3.012336 4 375
-1.742873 -9.3918505 -2.8038659 4 376
-1.7495131 -9.299676 -2.570025 4 377
-1.7243151 -9.2504063 -2.26212 4 378
-1.633323 -9.1941652 -2.0116241 4 379
-1.589332 -9.1415939 -1.764836 4 380
-1.624067 -9.0492964 -1.441211 4 381
-1.580926 -9.0063953 -1.198723 4 382
-1.4014241 -8.9099904 -0.9776822 4 383
-1.2957701 -8.8482534 -0.7437029 4 384
-1.317439 -8.763505 -0.4589081 3 385
-1.305948 -8.6547632 -0.149128 3 386
-1.258876 -8.5932989 0.0737267 3 387
-1.242023 -8.507308 0.3802986 3 388
-1.2491731 -8.4703255 0.5896416 3 389
-1.231334 -8.4079695 0.8574716 3 390
-1.215835 -8.3268089 1.075851 3 391
-1.171272 -8.2255612 1.403152 3 392
-1.107162 -8.1690483 1.651325 3 393
-1.08283 -8.052207 1.908892 3 394
-1.131927 -8.0254955 2.186739 3 395
-1.125667 -7.9469838 2.482872 3 396
-1.042993 -7.89502 2.731371 4 397
-0.9910824 -7.7807641 2.9627212 4 398
-0.9897664 -7.687623 3.266521 4 399
-0.8483212 -7.647202 3.4858821 4 400
-0.8407052 -7.5306301 3.8027251 4 401
-0.7006981 -7.4933019 3.9892372 4 402
-0.7166855 -7.348268 4.242146 4 403
-0.6941159 -7.279161 4.4861641 4 404
-0.6967232 -7.1458669 4.7316633 4 405
-0.6942475 -7.0430269 5.0468478 4 406
-0.5853951 -6.990945 5.3253021 4 407
-0.6320889 -6.882195 5.5434361 4 408
-0.5773157 -6.7975879 5.8154912 3 409
-0.4618256 -6.729785 6.0068631 3 410
-0.3798687 -6.5971489 6.3124681 3 411
-0.3037579 -6.5371351 6.5638962 3 412
-0.2930901 -6.5244169 6.821199 3 413
-0.0528576 -6.462337 7.0718989 3 414
-0.0249894 -6.3833289 7.293716 3 415
0.070214 -6.3233991 7.543766 3 416
0.1910083 -6.2831049 7.8105812 3 417
0.250468 -6.1945038 7.9987112 3 418
0.330178 -6.1079941 8.2664786 3 419
0.4743183 -6.0622592 8.5359192 3 420
0.6326168 -6.083169 8.7849665 4 421
0.7237481 -5.939713 9.0625153 4 422
0.7722442 -5.901062 9.290699 4 423
0.9673316 -5.803452 9.5406075 4 424
1.051625 -5.739624 9.7319718 4 425
1.1768251 -5.7097378 9.981104 4 426
1.334895 -5.6550269 10.1834402 4 427
1.471434 -5.6034732 10.4706497 4 428
1.6374901 -5.6269369 10.7042399 4 429
1.65371 -5.4414592 10.9464198 4 430
1.793751 -5.4292689 11.1611605 4 431
1.908519 -5.3388438 11.4309302 4 432
-3.080622 -10.3796301 -6.5500288 3 433
-2.994925 -10.3267603 -6.3198228 3 434
-2.842419 -10.2068596 -6.111743 3 435
-2.711057 -10.0889101 -5.8661828 3 436
-2.581265 -10.0166798 -5.687768 3 437
-2.4705971 -9.9534436 -5.417006 3 438
-2.394202 -9.8348942 -5.1670008 3 439
-2.2531731 -9.7274628 -4.8952932 3 440
-2.2101271 -9.6329851 -4.6451621 3 441
-2.0609181 -9.5459433 -4.4129291 3 442
-2.0190589 -9.4754048 -4.146369 3 443
-1.98479 -9.3609476 -3.8848702 3 444
-1.918807 -9.3720131 -3.641521 4 445
-1.923759 -9.2791338 -3.352834 4 446
-1.918267 -9.2000761 -3.0485981 4 447
-1.879085 -9.1427584 -2.854295 4 448
-1.829932 -9.1114016 -2.5800259 4 449
-1.700395 -9.0142784 -2.3015051 4 450
-1.677964 -8.9433852 -2.0603299 4 451
-1.642432 -8.9186402 -1.8132941 4 452
-1.651767 -8.8208123 -1.514171 4 453
-1.55075 -8.6864462 -1.312601 4 454
-1.426299 -8.612936 -1.006072 4 455
-1.349332 -8.558549 -0.7526598 4 456
-1.2752661 -8.4648495 -0.5270805 3 457
-1.267226 -8.3537398 -0.2898521 3 458
-1.284616 -8.3591251 0.0014725 3 459
-1.2583441 -8.2612476 0.2862892 3 460
-1.179691 -8.2177181 0.5454216 3 461
-1.220969 -8.1082153 0.7830505 3 462
-1.189901 -8.0577269 1.033041 3 463
-1.176635 -7.9509158 1.305229 3 464
-1.160098 -7.908926 1.538162 3 465
-1.1094281 -7.8247609 1.832745 3 466
-1.120799 -7.755508 2.101826 3 467
-1.119424 -7.7417841 2.3492601 3 468
-1.040746 -7.6268382 2.65024 4 469
-0.947925 -7.5538812 2.9091972 4 470
-0.8600668 -7.4389959 3.179245 4 471
-0.8099167 -7.381392 3.4175639 4 472
-0.6823151 -7.3356872 3.637739 4 473
-0.626817 -7.2572112 3.91987 4 474
-0.6031258 -7.1157169 4.2001228 4 475
-0.622453 -6.9771672 4.3947978 4 476
-0.6317933 -6.9337282 4.6949749 4 477
-0.6683171 -6.7964492 4.954813 4 478
-0.5756333 -6.733172 5.1894841 4 479
-0.5910561 -6.6303401 5.4182429 4 480
-0.5624249 -6.5169301 5.669704 3 481
-0.4377339 -6.4359002 5.952929 3 482
-0.3225358 -6.3545179 6.179646 3 483
-0.2883332 -6.25489 6.4347921 3 484
-0.1180947 -6.266705 6.6746459 3 485
-0.0338471 -6.189817 6.953907 3 486
0.0623767 -6.1125321 7.1504459 3 487
0.2361667 -6.0816398 7.4445501 3 488
0.2192905 -5.9658562 7.6622262 3 489
0.3886211 -5.9446902 7.9060478 3 490
0.5066783 -5.9030318 8.1554031 3 491
0.5574425 -5.859005 8.4220467 3 492
0.6425731 -5.7990942 8.7097664 4 493
0.7937553 -5.7050929 8.9404222 4 494
0.8969848 -5.6515432 9.1733437 4 495
1.007409 -5.5353079 9.4253159 4 496
1.029292 -5.5322962 9.6891117 4 497
1.257746 -5.438313 9.9071312 4 498
1.417836 -5.4356718 10.1238403 4 499
1.5902341 -5.408648 10.3436003 4 500
1.722226 -5.3225331 10.6044102 4 501
1.81836 -5.2989392 10.8362999 4 502
1.884845 -5.2785721 11.0888996 4 503
2.0745339 -5.2571259 11.2764101 4 504
-3.123996 -10.0770302 -6.5878859 3 505
-3.068646 -10.0521803 -6.3671789 3 506
-2.977041 -9.9349032 -6.149951 3 507
-2.745353 -9.8071776 -5.941854 3 508
-2.6798539 -9.7300444 -5.7063651 3 509
-2.536094 -9.712553 -5.4754782 3 510
-2.3727319 -9.5797005 -5.2245822 3 511
-2.3660901 -9.4799423 -4.9669118 3 512
-2.2497311 -9.3834171 -4.70081 3 513
-2.1524479 -9.328084 -4.4444418 3 514
-2.0834861 -9.2416124 -4.182332 3 515
-2.019408 -9.1747227 -3.9630462 3 516
-2.0194011 -9.069171 -3.652406 4 517
-1.984369 -9.0475836 -3.428948 4 518
-1.998338 -8.9556942 -3.154485 4 519
-2.0494871 -8.913602 -2.873956 4 520
-1.889903 -8.8420936 -2.6522441 4 521
-1.77161 -8.7349425 -2.3759761 4 522
-1.794202 -8.6877823 -2.1952119 4 523
-1.727538 -8.6385966 -1.870717 4 524
-1.6131031 -8.4940176 -1.626109 4 525
-1.5475461 -8.447835 -1.382435 4 526
-1.4558671 -8.3470259 -1.0856741 4 527
-1.398484 -8.2732086 -0.8330317 4 528
-1.359054 -8.268714 -0.6304398 3 529
-1.238578 -8.1868 -0.3476791 3 530
-1.282346 -8.0704594 -0.1227074 3 531
-1.301067 -7.9652338 0.1846676 3 532
-1.154605 -7.8913598 0.4104156 3 533
-1.113611 -7.8671442 0.6840935 3 534
-1.126462 -7.7462139 0.9428636 3 535
-1.1529501 -7.6967559 1.253973 3 536
-1.145561 -7.6138659 1.527695 3 537
-1.149022 -7.5687719 1.797491 3 538
-1.01806 -7.4859438 2.0176089 3 539
-1.049052 -7.4123478 2.2701299 3 540
-0.9596112 -7.3981152 2.544724 4 541
-0.854379 -7.2903171 2.7754669 4 542
-0.7935078 -7.2048898 3.032228 4 543
-0.6777776 -7.1374359 3.2959271 4 544
-0.6041253 -7.06183 3.532475 4 545
-0.5613911 -6.9822302 3.794159 4 546
-0.5500481 -6.836957 4.047276 4 547
-0.5293764 -6.7625251 4.270042 4 548
-0.5879338 -6.6575332 4.5809899 4 549
-0.5642788 -6.557631 4.8245769 4 550
-0.554271 -6.4484163 5.048965 4 551
-0.5199292 -6.3568468 5.324287 4 552
-0.4386227 -6.3022099 5.587627 3 553
-0.354831 -6.2192779 5.8357539 3 554
-0.2963593 -6.106966 6.1252079 3 555
-0.1578305 -6.0874639 6.311657 3 556
-0.0605004 -5.999094 6.556046 3 557
0.117398 -6.0014009 6.8249321 3 558
0.249543 -5.902698 7.077579 3 559
0.2059066 -5.764926 7.3260002 3 560
0.3211524 -5.7705021 7.6163769 3 561
0.5109051 -5.7327018 7.8079682 3 562
0.6078975 -5.7075362 8.0975037 3 563
0.6127727 -5.595511 8.3406544 3 564
0.6802509 -5.5528021 8.6208039 4 565
0.8192127 -5.4345398 8.8414478 4 566
0.9529426 -5.3872762 9.0784655 4 567
1.084426 -5.3040209 9.3374519 4 568
1.191771 -5.192698 9.5844002 4 569
1.337083 -5.1975098 9.8346329 4 570
1.511676 -5.176105 10.0460901 4 571
1.663056 -5.153605 10.2964296 4 572
1.8222131 -5.1072531 10.4899702 4 573
1.913201 -5.0408478 10.7843304 4 574
1.962647 -4.9424692 11.0251398 4 575
2.049258 -4.9223342 11.2139101 4 576
-3.2671809 -9.8555098 -6.6534009 3 577
-3.156584 -9.7461634 -6.4373122 3 578
-3.0595391 -9.6556435 -6.1982431 3 579
-2.860889 -9.5685969 -5.9883718 3 580
-2.6880791 -9.4922447 -5.7800932 3 581
-2.5628391 -9.4240837 -5.586545 3 582
-2.5217741 -9.3472853 -5.3191228 3 583
-2.3970311 -9.2876768 -5.0594778 3 584
-2.257081 -9.1508026 -4.8014331 3 585
-2.221576 -9.0959892 -4.5348602 3 586
-2.148463 -8.973382 -4.2981181 3 587
-2.1131029 -8.872097 -4.0342069 3 588
-2.0682819 -8.849596 -3.756614 4 589
-2.1384499 -8.8173075 -3.489697 4 590
-2.0812261 -8.6914082 -3.1697991 4 591
-2.0410149 -8.5926047 -2.9658862 4 592
-1.87391 -8.5740214 -2.7643001 4 593
-1.868253 -8.5078049 -2.4957991 4 594
-1.807124 -8.3836784 -2.1699381 4 595
-1.776868 -8.3376227 -1.929683 4 596
-1.6722521 -8.2271938 -1.701121 4 597
-1.52301 -8.150034 -1.471789 4 598
-1.462934 -8.095767 -1.207003 4 599
-1.444194 -8.0306253 -0.9026194 4 600
-1.348426 -7.9131242 -0.7118444 3 601
-1.330636 -7.904541 -0.4627228 3 602
-1.258052 -7.7953291 -0.1415749 3 603
-1.139644 -7.7274771 0.0462379 3 604
-1.1525871 -7.6457711 0.3752651 3 605
-1.175601 -7.5843072 0.6171303 3 606
-1.150865 -7.5275913 0.8979322 3 607
-1.136844 -7.4505162 1.165592 3 608
-1.159389 -7.400125 1.44721 3 609
-1.139503 -7.2735 1.7048151 3 610
-1.100116 -7.2330389 1.967094 3 611
-0.9739144 -7.1603522 2.2361641 3 612
-0.934747 -7.0871239 2.520737 4 613
-0.7942002 -6.9982272 2.7008419 4 614
-0.7040551 -6.9152832 2.922153 4 615
-0.6581852 -6.8920412 3.1919799 4 616
-0.5610726 -6.8183069 3.4772241 4 617
-0.5025761 -6.7607651 3.648403 4 618
-0.4333222 -6.6268239 3.9940642 4 619
-0.5424626 -6.5018382 4.1697621 4 620
-0.4448502 -6.3979368 4.4788108 4 621
-0.504451 -6.3363681 4.757185 4 622
-0.3769925 -6.2285471 4.919273 4 623
-0.4105427 -6.1206222 5.2133689 4 624
-0.335006 -6.02037 5.4602361 3 625
-0.2264149 -6.0097151 5.7339549 3 626
-0.2182992 -5.9429908 6.0181241 3 627
-0.108907 -5.8042679 6.2605739 3 628
0.1312034 -5.7755652 6.4652748 3 629
0.231837 -5.767344 6.7446351 3 630
0.3285606 -5.720088 6.9831872 3 631
0.3706157 -5.6118589 7.228848 3 632
0.5041893 -5.5181299 7.492847 3 633
0.607848 -5.4798522 7.7027421 3 634
0.7056148 -5.4064179 7.996687 3 635
0.7741363 -5.3753371 8.199749 3 636
0.7910354 -5.2703581 8.5088349 4 637
0.8961494 -5.1854739 8.7297516 4 638
1.093529 -5.1915941 8.960928 4 639
1.1656981 -5.0779142 9.2675018 4 640
1.2999311 -4.9938332 9.5024719 4 641
1.427106 -4.970461 9.6580963 4 642
1.550517 -4.929111 10.0019503 4 643
1.7143871 -4.8839288 10.1940498 4 644
1.791215 -4.810338 10.4372597 4 645
1.972735 -4.7412081 10.6873503 4 646
1.995238 -4.6485582 10.9410802 4 647
1.977397 -4.6282978 11.2565298 4 648
-3.299063 -9.6201525 -6.6792541 3 649
-3.200248 -9.4681711 -6.53021 3 650
-3.073348 -9.4222317 -6.3277412 3 651
-2.930181 -9.3348332 -6.1245852 3 652
-2.811575 -9.2507334 -5.8772312 3 653
-2.668829 -9.1568384 -5.6382609 3 654
-2.564868 -9.0425863 -5.4081392 3 655
-2.4390421 -8.9575186 -5.1721468 3 656
-2.3955391 -8.8818254 -4.932912 3 657
-2.2636271 -8.8014002 -4.6345821 3 658
-2.296031 -8.6924343 -4.3852849 3 659
-2.21295 -8.6432228 -4.112185 3 660
-2.2263179 -8.6292725 -3.834239 4 661
-2.124177 -8.5073138 -3.5577331 4 662
-2.109277 -8.4251967 -3.3540139 4 663
-2.0037949 -8.3734589 -3.053704 4 664
-1.891282 -8.2474117 -2.7775109 4 665
-1.900672 -8.2387934 -2.515538 4 666
-1.860099 -8.1361189 -2.289609 4 667
-1.671935 -8.0903978 -2.0631249 4 668
-1.702886 -7.984056 -1.782718 4 669
-1.6499341 -7.9417472 -1.520713 4 670
-1.547374 -7.8390852 -1.258385 4 671
-1.4206001 -7.7469239 -1.0616519 4 672
-1.374835 -7.65376 -0.7917452 3 673
-1.323848 -7.6394429 -0.5054665 3 674
-1.280717 -7.580379 -0.2282753 3 675
-1.212405 -7.495986 -0.0149956 3 676
-1.209047 -7.4052019 0.2741547 3 677
-1.19258 -7.3175612 0.5948887 3 678
-1.210948 -7.2441511 0.8106995 3 679
-1.239164 -7.1856589 1.093811 3 680
-1.23092 -7.111856 1.35623 3 681
-1.174855 -7.0082788 1.623125 3 682
-1.151593 -6.98984 1.917046 3 683
-1.066123 -6.929492 2.1623311 3 684
-0.9154256 -6.8364811 2.382256 4 685
-0.7624277 -6.719059 2.6156199 4 686
-0.5857384 -6.7181492 2.8692702 4 687
-0.5835545 -6.6275792 3.0756741 4 688
-0.5588982 -6.5618601 3.3445571 4 689
-0.5030321 -6.4899812 3.609859 4 690
-0.4688618 -6.3901582 3.845011 4 691
-0.3736012 -6.2303591 4.1402512 4 692
-0.3240941 -6.1586142 4.3502998 4 693
-0.2489274 -6.0589409 4.6277662 4 694
-0.3216412 -6.012918 4.839296 4 695
-0.2496159 -5.9248838 5.1095662 4 696
-0.2939446 -5.7940111 5.36376 3 697
-0.1116803 -5.78017 5.5922051 3 698
-0.087209 -5.7001791 5.8886342 3 699
0.0498416 -5.6076961 6.1280818 3 700
0.1264961 -5.5471649 6.421299 3 701
0.3329456 -5.5253668 6.623611 3 702
0.4132583 -5.4697891 6.871359 3 703
0.5168788 -5.363286 7.1690831 3 704
0.6357486 -5.327148 7.3813319 3 705
0.6818607 -5.238307 7.6510959 3 706
0.8354175 -5.1932879 7.864811 3 707
0.877673 -5.098454 8.1346092 3 708
0.956496 -5.0179052 8.3587303 4 709
1.011273 -4.9897152 8.6556893 4 710
1.124844 -4.9117188 8.8563728 4 711
1.255772 -4.798491 9.1232338 4 712
1.349168 -4.7565179 9.3612862 4 713
1.4859721 -4.7239118 9.6256686 4 714
1.622376 -4.6653381 9.8937532 4 715
1.779567 -4.6571498 10.0523796 4 716
1.932133 -4.5597348 10.3163204 4 717
2.023591 -4.5100022 10.5852099 4 718
1.999621 -4.441257 10.9003096 4 719
2.0448179 -4.3964262 11.1412697 4 720
-3.222549 -9.351182 -6.8412328 3 721
-3.14204 -9.2224779 -6.7040382 3 722
-3.093116 -9.1310358 -6.4010081 3 723
-3.032845 -9.0511255 -6.1932731 3 724
-2.9382542 -8.9648714 -5.9060932 3 725
-2.7956591 -8.8908044 -5.6974058 3 726
-2.5625711 -8.7995558 -5.5083108 3 727
-2.4274521 -8.6761017 -5.231874 3 728
-2.4006841 -8.6173125 -4.9535132 3 729
-2.3958609 -8.568718 -4.7473798 3 730
-2.368856 -8.4620238 -4.4519048 3 731
-2.320009 -8.3820267 -4.1599302 3 732
-2.193861 -8.3222695 -3.948001 4 733
-2.1493709 -8.2713633 -3.6640411 4 734
-2.07096 -8.1838589 -3.3917279 4 735
-1.986581 -8.1181545 -3.1549289 4 736
-1.978938 -8.0218382 -2.880746 4 737
-1.968135 -7.956439 -2.634171 4 738
-1.783056 -7.9061042 -2.3415821 4 739
-1.777925 -7.7855349 -2.079324 4 740
-1.6704691 -7.7218519 -1.894698 4 741
-1.687848 -7.6799402 -1.560815 4 742
-1.601985 -7.6016941 -1.331136 4 743
-1.473956 -7.4747758 -1.107883 4 744
-1.4460581 -7.4305682 -0.8408756 3 745
-1.404865 -7.3805642 -0.5383034 3 746
-1.365886 -7.3152909 -0.3321648 3 747
-1.280547 -7.256402 -0.0288429 3 748
-1.257905 -7.1085391 0.2349434 3 749
-1.216939 -7.0278368 0.4946709 3 750
-1.292251 -6.9588462 0.7825089 3 751
-1.213037 -6.922361 1.02066 3 752
-1.192397 -6.8202563 1.272587 3 753
-1.1711 -6.7508478 1.5293241 3 754
-1.096917 -6.693398 1.826427 3 755
-1.034215 -6.6608591 2.081512 3 756
-0.8748544 -6.553493 2.269505 4 757
-0.7870209 -6.4966669 2.5846331 4 758
-0.6200459 -6.4405532 2.7505651 4 759
-0.5572217 -6.3672819 2.975803 4 760
-0.4602959 -6.3290382 3.280937 4 761
-0.4238236 -6.173687 3.5218029 4 762
-0.331239 -6.1123352 3.805285 4 763
-0.2448094 -6.0519199 3.981277 4 764
-0.2655442 -5.8916722 4.2759481 4 765
-0.2122815 -5.8387361 4.515266 4 766
-0.1516564 -5.7406869 4.746119 4 767
-0.1695015 -5.6464873 5.0019069 4 768
-0.1546643 -5.5712042 5.253469 3 769
-0.0249741 -5.5209213 5.5367222 3 770
0.0298297 -5.432662 5.7531872 3 771
0.1023529 -5.3483219 6.055254 3 772
0.2560127 -5.3388972 6.3178101 3 773
0.4514205 -5.3061419 6.5489688 3 774
0.5217559 -5.1855121 6.7940412 3 775
0.6694801 -5.1345549 7.0132408 3 776
0.730355 -5.0989609 7.2755199 3 777
0.868449 -5.0028501 7.5380249 3 778
0.9237564 -4.948814 7.838593 3 779
1.0591 -4.889009 8.0391521 3 780
1.0814691 -4.7812453 8.2914162 4 781
1.144858 -4.7536059 8.5319405 4 782
1.2902841 -4.6438113 8.7674666 4 783
1.3057751 -4.5981822 9.0221672 4 784
1.415248 -4.4916101 9.2889061 4 785
1.598315 -4.5440879 9.5179234 4 786
1.7155921 -4.4937582 9.8010865 4 787
1.887151 -4.4137268 9.9886228 4 788
1.938428 -4.3282519 10.3097296 4 789
2.0333869 -4.2670632 10.5779696 4 790
2.0949199 -4.1816921 10.8115597 4 791
2.207902 -4.1081982 11.0497103 4 792
-3.285573 -9.0110416 -6.9507132 3 793
-3.169524 -8.9656344 -6.7762819 3 794
-3.1028979 -8.9365816 -6.5254531 3 795
-3.0214529 -8.7881804 -6.2632551 3 796
-2.920222 -8.7327185 -6.007247 3 797
-2.8588742 -8.6405182 -5.7379222 3 798
-2.6912849 -8.5821867 -5.5702939 3 799
-2.5796931 -8.4370795 -5.3112612 3 800
-2.5697119 -8.3619318 -5.0324931 3 801
-2.4999931 -8.3097096 -4.746346 3 802
-2.417156 -8.2373734 -4.543942 3 803
-2.3794689 -8.1372213 -4.239768 3 804
-2.263119 -8.042222 -3.953326 4 805